<?xml version="1.0"?>
<VTKFile type="UnstructuredGrid"  version="0.1"  >
<UnstructuredGrid>
<Piece  NumberOfPoints="24256" NumberOfCells="48358">
<Points>
<DataArray  type="Float64"  NumberOfComponents="3"  format="ascii">0 0 0  50 0 0  100 0 0  100 49.5 0  100 50.5 0  100 100 0  50 100 0  0 100 0  0 50.5 0  0 49.5 0  0 75 0  0 25 0  100 25 0  100 75 0  24.5 49.5 0  24.5 50.5 0  75.5 50.5 0  75.5 49.5 0  80 49.5 0  80 50.5 0  20 50.5 0  20 49.5 0  20 75 0  50 75 0  80 75 0  80 25 0  50 25 0  20 25 0  50 50 0  25 50 0  75 50 0  24.6913417161905 50.46193976625235 0  24.85355339060025 50.3535533905863 0  24.96193976626094 50.19134171616977 0  24.96193976626191 49.80865828383259 0  24.85355339060165 49.6464466094151 0  24.69134171619181 49.5380602337482 0  75.30865828380529 50.4619397662506 0  75.14644660940547 50.35355339059202 0  75.03806023374186 50.1913417161765 0  75.03806023374065 49.80865828382641 0  75.14644660940286 49.6464466094106 0  75.3086582838058 49.53806023374919 0  25.19951614622269 50 0  25.40142063054872 50 0  25.60574210295544 50 0  25.81250948266545 50 0  26.0217520778856 50 0  26.23349951676287 50 0  26.44778179878875 50 0  26.6646292257103 50 0  26.88407252000402 50 0  27.10614273817509 50 0  27.33087139223914 50 0  27.5582902617968 50 0  27.78843154377079 50 0  28.02132779859583 50 0  28.25701212732613 50 0  28.49551779753923 50 0  28.73687860057358 50 0  28.98112872321073 50 0  29.22830275592332 50 0  29.47843570044527 50 0  29.73156297669333 50 0  29.98772042906865 50 0  30.24694433216624 50 0  30.50927139591921 50 0  30.77473877020432 50 0  31.04338404893412 50 0  31.31524527366058 50 0  31.59036093671394 50 0  31.86876998390005 50 0  32.15051184795058 50 0  32.43562649009755 50 0  32.72415415620186 50 0  33.01613584464261 50 0  33.31161281585579 50 0  33.61062692242808 50 0  33.91322051012257 50 0  34.21943640671003 50 0  34.52931807773269 50 0  34.84290928650268 50 0  35.16025460694943 50 0  35.48139871583209 50 0  35.8063872838676 50 0  36.1352662367809 50 0  36.46808207817695 50 0  36.80488218829193 50 0  37.14571406174852 50 0  37.49062618898397 50 0  37.83966709981627 50 0  38.1928863950564 50 0  38.55033394694173 50 0  38.91206068919998 50 0  39.27811755190851 50 0  39.64855635406197 50 0  40.02342992204706 50 0  40.40279094884485 50 0  40.78669330115305 50 0  41.1751912579513 50 0  41.56834005356981 50 0  41.96619511805834 50 0  42.36881293145003 50 0  42.77625048200917 50 0  43.18856530542669 50 0  43.60581617975753 50 0  44.02806183666044 50 0  44.45536217468985 50 0  44.88777770917031 50 0  45.32536960312584 50 0  45.76820003270851 50 0  46.21633143285066 50 0  46.66982755007726 50 0  47.12875237761952 50 0  47.59317096415209 50 0  48.06314909969768 50 0  48.53875333639597 50 0  49.02005100772931 50 0  49.50711024626847 50 0  50.49288975371359 50 0  50.97994899223524 50 0  51.46124666355149 50 0  51.93685090023309 50 0  52.40682903576241 50 0  52.8712476222791 50 0  53.33017244980586 50 0  53.78366856701732 50 0  54.23179996714473 50 0  54.67463039671301 50 0  55.11222229065453 50 0  55.54463782512131 50 0  55.97193816313742 50 0  56.39418382002735 50 0  56.81143469434553 50 0  57.22374951775078 50 0  57.63118706829796 50 0  58.03380488167798 50 0  58.43165994615514 50 0  58.8248087417626 50 0  59.21330669855615 50 0  59.59720905086467 50 0  59.97657007766281 50 0  60.35144364564827 50 0  60.72188244780216 50 0  61.08793931051112 50 0  61.44966605276986 50 0  61.80711360465571 50 0  62.16033289989638 50 0  62.50937381072924 50 0  62.85428593796531 50 0  63.19511781142246 50 0  63.53191792153814 50 0  63.86473376293482 50 0  64.19361271585434 50 0  64.51860128389967 50 0  64.83974539279198 50 0  65.15709071324817 50 0  65.47068192202742 50 0  65.78056359305916 50 0  66.08677948965553 50 0  66.38937307735874 50 0  66.68838718393957 50 0  66.98386415516111 50 0  67.27584584361004 50 0  67.5643735097224 50 0  67.84948815187724 50 0  68.13123001593549 50 0  68.40963906312913 50 0  68.68475472618989 50 0  68.95661595092359 50 0  69.2252612296605 50 0  69.49072860395255 50 0  69.7530556677123 50 0  70.01227957081655 50 0  70.26843702319839 50 0  70.52156429945282 50 0  70.771697243981 50 0  71.01887127669971 50 0  71.26312139934282 50 0  71.504482202383 50 0  71.74298787260182 50 0  71.9786722013377 50 0  72.21156845616824 50 0  72.44170973814758 50 0  72.66912860771049 50 0  72.89385726177966 50 0  73.11592747995573 50 0  73.33537077425433 50 0  73.55221820118066 50 0  73.76650048321122 50 0  73.97824792209306 50 0  74.18749051731768 50 0  74.39425789703208 50 0  74.59857936944304 50 0  74.80048385377326 50 0  0 43.37500000000002 0  0 37.25000000000004 0  0 31.12500000000004 0  0 17.27826487323784 0  0 8.960276504660179 0  9.999999999957065 0 0  19.99999999992002 0 0  29.99999999990366 0 0  39.99999999994531 0 0  59.99999999989675 0 0  69.9999999997935 0 0  79.99999999969025 0 0  89.99999999981904 0 0  100 8.960276504556731 0  100 17.27826487314172 0  100 31.12499999999998 0  100 37.24999999999996 0  100 43.37499999999996 0  100 56.6250000000798 0  100 62.7500000001596 0  100 68.87500000009784 0  100 82.7217351268162 0  100 91.03972349540425 0  90.00000000006384 100 0  80.00000000012767 100 0  70.00000000019152 100 0  60.00000000007827 100 0  40.00000000007105 100 0  30.00000000012907 100 0  20.00000000012907 100 0  10.00000000007105 100 0  0 91.03972349540425 0  0 82.72173512681618 0  0 68.87500000009786 0  0 62.75000000015963 0  0 56.62500000007984 0  6.120412593464062 50.5 0  10.49556498072933 50.5 0  13.62312453054427 50.5 0  15.85884727978738 50.5 0  17.45704437958013 50.5 0  18.5995091469825 50.5 0  19.41619524474999 50.5 0  20.47515120167095 50.5 0  20.92019997326993 50.5 0  21.33705330448883 50.5 0  21.72749758188099 50.5 0  22.09320586309756 50.5 0  22.43574522275861 50.5 0  22.75658349581136 50.5 0  23.05709552442124 50.5 0  23.33856909343812 50.5 0  23.60221031035009 50.5 0  23.8491489196949 50.5 0  24.08044314138694 50.5 0  24.29708401977037 50.5 0  24.29708401977037 49.5 0  24.08044314138694 49.5 0  23.8491489196949 49.5 0  23.6022103103501 49.5 0  23.33856909343813 49.5 0  23.05709552442125 49.5 0  22.75658349581136 49.5 0  22.43574522275861 49.5 0  22.09320586309756 49.5 0  21.72749758188098 49.5 0  21.33705330448883 49.5 0  20.92019997326993 49.5 0  20.47515120167095 49.5 0  6.120412593464062 49.5 0  10.49556498072933 49.5 0  13.62312453054427 49.5 0  15.85884727978738 49.5 0  17.45704437958013 49.5 0  18.5995091469825 49.5 0  19.41619524474999 49.5 0  93.87958740647669 50.5 0  89.50443501919381 50.5 0  86.37687546938463 50.5 0  84.14115272015442 50.5 0  82.54295562037724 50.5 0  81.40049085299049 50.5 0  80.5838047552374 50.5 0  79.52484879832905 50.5 0  79.07980002673007 50.5 0  78.66294669551117 50.5 0  78.27250241811902 50.5 0  77.90679413690243 50.5 0  77.5642547772414 50.5 0  77.24341650418864 50.5 0  76.94290447557876 50.5 0  76.66143090656188 50.5 0  76.39778968964991 50.5 0  76.1508510803051 50.5 0  75.91955685861306 50.5 0  75.70291598022963 50.5 0  75.70291598022963 49.5 0  75.91955685861306 49.5 0  76.1508510803051 49.5 0  76.39778968964991 49.5 0  76.66143090656188 49.5 0  76.94290447557876 49.5 0  77.24341650418864 49.5 0  77.56425477724139 49.5 0  77.90679413690243 49.5 0  78.27250241811902 49.5 0  78.66294669551118 49.5 0  79.07980002673007 49.5 0  79.52484879832905 49.5 0  80.5838047552374 49.5 0  81.40049085299049 49.5 0  82.54295562037723 49.5 0  84.14115272015439 49.5 0  86.3768754693846 49.5 0  89.50443501919378 49.5 0  93.87958740647666 49.5 0  50 92.72111048148359 0  50 87.44430513406535 0  50 83.61890508869973 0  50 80.84569537599788 0  50 78.83526725030589 0  50 77.37781470319995 0  50 76.32123989355226 0  50 75.55527989155394 0  50 74.49999999999723 0  50 73.99999999999444 0  50 73.49999999999167 0  50 72.9999999999889 0  50 72.49999999998612 0  50 71.99999999998334 0  50 71.49999999998057 0  50 70.9999999999778 0  50 70.49999999997502 0  50 69.99999999997225 0  50 69.49999999996948 0  50 68.99999999996669 0  50 68.49999999996392 0  50 67.99999999996115 0  50 67.49999999995836 0  50 66.99999999995559 0  50 66.49999999995282 0  50 65.99999999995003 0  50 65.49999999994726 0  50 64.99999999994449 0  50 64.49999999994171 0  50 63.99999999993982 0  50 63.49999999994937 0  50 62.99999999996081 0  50 62.49999999997224 0  50 61.99999999998368 0  50 61.49999999999511 0  50 61.00000000000655 0  50 60.50000000001798 0  50 60.00000000002942 0  50 59.50000000004086 0  50 59.00000000004974 0  50 58.50000000004718 0  50 58.00000000004441 0  50 57.50000000004164 0  50 57.00000000003886 0  50 56.50000000003608 0  50 56.00000000003331 0  50 55.50000000003053 0  50 55.00000000002775 0  50 54.50000000002498 0  50 54.0000000000222 0  50 53.50000000001943 0  50 53.00000000001666 0  50 52.50000000001388 0  50 52.0000000000111 0  50 51.50000000000833 0  50 51.00000000000556 0  50 50.50000000000278 0  50 49.50000000000319 0  50 49.00000000000639 0  50 48.50000000000958 0  50 48.00000000001277 0  50 47.50000000001596 0  50 47.00000000001916 0  50 46.50000000002235 0  50 46.00000000002554 0  50 45.50000000002873 0  50 45.00000000003192 0  50 44.50000000003512 0  50 44.00000000003831 0  50 43.5000000000415 0  50 43.00000000004469 0  50 42.50000000004789 0  50 42.00000000005108 0  50 41.50000000005427 0  50 41.00000000005746 0  50 40.50000000006066 0  50 40.00000000006385 0  50 39.50000000006704 0  50 39.00000000007024 0  50 38.50000000007343 0  50 38.00000000007662 0  50 37.50000000007981 0  50 37.00000000008301 0  50 36.5000000000862 0  50 36.00000000008939 0  50 35.50000000009258 0  50 35.00000000009578 0  50 34.50000000009896 0  50 34.0000000000996 0  50 33.50000000008881 0  50 33.00000000007779 0  50 32.50000000006678 0  50 32.00000000005598 0  50 31.5000000000509 0  50 31.00000000004698 0  50 30.50000000004307 0  50 30.00000000003915 0  50 29.50000000003524 0  50 29.00000000003132 0  50 28.50000000002741 0  50 28.00000000002349 0  50 27.50000000001958 0  50 27.0
[...]
<PointData  Vectors="Displacement"> 
<DataArray  type="Float64"  Name="Displacement"  NumberOfComponents="3" format="ascii">0.0000000000000000e+00 0.0000000000000000e+00 0.0000000000000000e+00  0.0000000000000000e+00 0.0000000000000000e+00 0.0000000000000000e+00  0.0000000000000000e+00 0.0000000000000000e+00 0.0000000000000000e+00  3.0102568891641216e-04 7.6596080943610738e-05 0.0000000000000000e+00  6.3267560850686021e-04 7.1559444354604511e-04 0.0000000000000000e+00  1.0000000000000000e-03 1.0000000000000000e-03 0.0000000000000000e+00  1.0000000000000000e-03 1.0000000000000000e-03 0.0000000000000000e+00  1.0000000000000000e-03 1.0000000000000000e-03 0.0000000000000000e+00  6.9897431011441027e-04 9.2340391931132709e-04 0.0000000000000000e+00  3.6732438991895144e-04 2.8440555553805647e-04 0.0000000000000000e+00  8.5898817574956527e-04 9.6870307997768020e-04 0.0000000000000000e+00  2.7412009793419714e-04 2.3389340008142642e-04 0.0000000000000000e+00  1.4101182362147920e-04 3.1296920287157373e-05 0.0000000000000000e+00  7.2587990076064578e-04 7.6610659895105598e-04 0.0000000000000000e+00  4.5371070051168747e-04 4.9203203528799702e-04 0.0000000000000000e+00  5.4442108723948344e-04 6.3935770108974454e-04 0.0000000000000000e+00  5.4628929791010277e-04 5.0796796455706552e-04 0.0000000000000000e+00  4.5557891143848658e-04 3.6064229895410550e-04 0.0000000000000000e+00  3.9130907671680940e-04 2.3640239772896893e-04 0.0000000000000000e+00  6.0130031563950111e-04 6.2524901305659056e-04 0.0000000000000000e+00  6.0869092213527922e-04 7.6359760240328782e-04 0.0000000000000000e+00  3.9869968264428444e-04 3.7475098648750917e-04 0.0000000000000000e+00  8.4593598638811422e-04 8.7957010255479222e-04 0.0000000000000000e+00  7.8958341890596521e-04 7.6544636866083052e-04 0.0000000000000000e+00  7.4532730377096807e-04 7.7476235049672390e-04 0.0000000000000000e+00  1.5406401299071271e-04 1.2042989761814138e-04 0.0000000000000000e+00  2.1041658077186360e-04 2.3455363200987564e-04 0.0000000000000000e+00  2.5467269423201243e-04 2.2523764487771168e-04 0.0000000000000000e+00  4.9999999933406677e-04 5.0000000012540707e-04 0.0000000000000000e+00  5.0068114574484436e-04 5.6692815133776563e-04 0.0000000000000000e+00  4.9931885280627493e-04 4.3307184862780045e-04 0.0000000000000000e+00  5.3695700278300659e-04 6.2507319508003402e-04 0.0000000000000000e+00  5.2645058216722516e-04 6.0739400830008277e-04 0.0000000000000000e+00  5.1404903008124255e-04 5.8772706601080361e-04 0.0000000000000000e+00  4.8731491471863138e-04 5.4605986407515181e-04 0.0000000000000000e+00  4.7457200419733891e-04 5.2602681828851981e-04 0.0000000000000000e+00  4.6310769850661782e-04 5.0756478715680096e-04 0.0000000000000000e+00  5.3689229994027246e-04 4.9243521271701289e-04 0.0000000000000000e+00  5.2542799428154357e-04 4.7397318161788987e-04 0.0000000000000000e+00  5.1268508379565003e-04 4.5394013586227727e-04 0.0000000000000000e+00  4.8595096850716473e-04 4.1227293398042239e-04 0.0000000000000000e+00  4.7354941645650527e-04 3.9260599171323440e-04 0.0000000000000000e+00  4.6304299587184825e-04 3.7492680495165354e-04 0.0000000000000000e+00  4.9811453466172139e-04 5.6232416568528397e-04 0.0000000000000000e+00  4.9771471176554257e-04 5.5980520034475492e-04 0.0000000000000000e+00  4.9789888072618727e-04 5.5803404987213008e-04 0.0000000000000000e+00  4.9828339555815239e-04 5.5662579685358381e-04 0.0000000000000000e+00  4.9873219202031588e-04 5.5541530214189003e-04 0.0000000000000000e+00  4.9919160331479890e-04 5.5433131126287705e-04 0.0000000000000000e+00  4.9964063839679027e-04 5.5333124182381705e-04 0.0000000000000000e+00  5.0006982869705728e-04 5.5239188551389545e-04 0.0000000000000000e+00  5.0047469524511982e-04 5.5149765021417067e-04 0.0000000000000000e+00  5.0085541566221637e-04 5.5063819363108772e-04 0.0000000000000000e+00  5.0121216797221167e-04 5.4980629385939918e-04 0.0000000000000000e+00  5.0154556866219952e-04 5.4899655438282703e-04 0.0000000000000000e+00  5.0185730685749642e-04 5.4820474466609913e-04 0.0000000000000000e+00  5.0214786467474510e-04 5.4742795055364780e-04 0.0000000000000000e+00  5.0241881421631256e-04 5.4666349620317140e-04 0.0000000000000000e+00  5.0267120652324371e-04 5.4590951080612843e-04 0.0000000000000000e+00  5.0290626904582231e-04 5.4516428778130334e-04 0.0000000000000000e+00  5.0312483760230336e-04 5.4442656133464628e-04 0.0000000000000000e+00  5.0332762104242628e-04 5.4369528571235044e-04 0.0000000000000000e+00  5.0351588044674845e-04 5.4296929280454398e-04 0.0000000000000000e+00  5.0368975043272419e-04 5.4224790231061472e-04 0.0000000000000000e+00  5.0385032018808538e-04 5.4153033009008279e-04 0.0000000000000000e+00  5.0399798846968279e-04 5.4081602179874549e-04 0.0000000000000000e+00  5.0413341216771048e-04 5.4010438801574889e-04 0.0000000000000000e+00  5.0425701283549540e-04 5.3939497813776144e-04 0.0000000000000000e+00  5.0436927365228297e-04 5.3868733575560912e-04 0.0000000000000000e+00  5.0447065750694963e-04 5.3798110911593491e-04 0.0000000000000000e+00  5.0456142506228208e-04 5.3727596555584690e-04 0.0000000000000000e+00  5.0464207629900924e-04 5.3657154439181441e-04 0.0000000000000000e+00  5.0471277813728143e-04 5.3586757297889392e-04 0.0000000000000000e+00  5.0477398828364137e-04 5.3516381537735348e-04 0.0000000000000000e+00  5.0482581355762684e-04 5.3446006234733937e-04 0.0000000000000000e+00  5.0486865724791994e-04 5.3375602184251351e-04 0.0000000000000000e+00  5.0490267729672706e-04 5.3305150746548596e-04 0.0000000000000000e+00  5.0492804028954240e-04 5.3234637335443542e-04 0.0000000000000000e+00  5.0494508488509930e-04 5.3164039411676234e-04 0.0000000000000000e+00  5.0495388361937606e-04 5.3093338280466452e-04 0.0000000000000000e+00  5.0495463955692798e-04 5.3022520233248903e-04 0.0000000000000000e+00  5.0494753760176904e-04 5.2951571585710205e-04 0.0000000000000000e+00  5.0493273099349472e-04 5.2880474397363055e-04 0.0000000000000000e+00  5.0491037810556358e-04 5.2809215108423711e-04 0.0000000000000000e+00  5.0488057564467231e-04 5.2737777823213205e-04 0.0000000000000000e+00  5.0484347263947350e-04 5.2666150494839255e-04 0.0000000000000000e+00  5.0479921188311436e-04 5.2594319354570189e-04 0.0000000000000000e+00  5.0474787275810173e-04 5.2522269976203585e-04 0.0000000000000000e+00  5.0468963412530479e-04 5.2449988176574971e-04 0.0000000000000000e+00  5.0462451587156992e-04 5.2377460181639670e-04 0.0000000000000000e+00  5.0455269132959070e-04 5.2304673667836923e-04 0.0000000000000000e+00  5.0447425124628309e-04 5.2231614788812502e-04 0.0000000000000000e+00  5.0438925944022175e-04 5.2158269436989864e-04 0.0000000000000000e+00  5.0429785714574665e-04 5.2084621610808341e-04 0.0000000000000000e+00  5.0420009694042672e-04 5.2010656687235808e-04 0.0000000000000000e+00  5.0409610720681557e-04 5.1936360538761483e-04 0.0000000000000000e+00  5.0398595895572774e-04 5.1861717692138225e-04 0.0000000000000000e+00  5.0386976140487166e-04 5.1786710764318341e-04 0.0000000000000000e+00  5.0374759123464113e-04 5.1711323808249874e-04 0.0000000000000000e+00  5.0361954662410304e-04 5.1635538082176673e-04 0.0000000000000000e+00  5.0348572963788973e-04 5.1559335906732205e-04 0.0000000000000000e+00  5.0334622648368814e-04 5.1482698986949921e-04 0.0000000000000000e+00  5.0320115549189637e-04 5.1405606047528140e-04 0.0000000000000000e+00  5.0305059051840902e-04 5.1328037171813085e-04 0.0000000000000000e+00  5.0289464530188879e-04 5.1249968428388685e-04 0.0000000000000000e+00  5.0273344352636581e-04 5.1171378501828867e-04 0.0000000000000000e+00  5.0256709502081629e-04 5.1092243611579162e-04 0.0000000000000000e+00  5.0239568873796671e-04 5.1012537681946143e-04 0.0000000000000000e+00  5.0221940921588029e-04 5.0932231916880845e-04 0.0000000000000000e+00  5.0203831888059164e-04 5.0851299988587009e-04 0.0000000000000000e+00  5.0185259016407940e-04 5.0769711404681874e-04 0.0000000000000000e+00  5.0166239336357831e-04 5.0687434459526523e-04 0.0000000000000000e+00  5.0146783873246544e-04 5.0604435049849935e-04 0.0000000000000000e+00  5.0126911037673600e-04 5.0520678355176710e-04 0.0000000000000000e+00  5.0106638415822768e-04 5.0436128540583486e-04 0.0000000000000000e+00  5.0085988092921996e-04 5.0350743476734532e-04 0.0000000000000000e+00  5.0064972754908829e-04 5.0264484730977942e-04 0.0000000000000000e+00  5.0043624244603747e-04 5.0177304504970557e-04 0.0000000000000000e+00  5.0021955885178981e-04 5.0089160761221320e-04 0.0000000000000000e+00  4.9978043981624616e-04 4.9910839263847214e-04 0.0000000000000000e+00  4.9956375622169221e-04 4.9822695520053222e-04 0.0000000000000000e+00  4.9935027111813464e-04 4.9735515293970463e-04 0.0000000000000000e+00  4.9914011773730495e-04 4.9649256548108954e-04 0.0000000000000000e+00  4.9893361450741849e-04 4.9563871484126709e-04 0.0000000000000000e+00  4.9873088828786315e-04 4.9479321669373619e-04 0.0000000000000000e+00  4.9853215993092429e-04 4.9395564974514172e-04 0.0000000000000000e+00  4.9833760529844620e-04 4.9312565564626142e-04 0.0000000000000000e+00  4.9814740849643926e-04 4.9230288619235606e-04 0.0000000000000000e+00  4.9796167977828910e-04 4.9148700035072561e-04 0.0000000000000000e+00  4.9778058944123689e-04 4.9067768106498470e-04 0.0000000000000000e+00  4.9760430991727697e-04 4.8987462341132468e-04 0.0000000000000000e+00  4.9743290363245046e-04 4.8907756411178623e-04 0.0000000000000000e+00  4.9726655512483077e-04 4.8828621520589401e-04 0.0000000000000000e+00  4.9710535334715499e-04 4.8750031593672153e-04 0.0000000000000000e+00  4.9694940812840716e-04 4.8671962849873514e-04 0.0000000000000000e+00  4.9679884315262401e-04 4.8594393973768060e-04 0.0000000000000000e+00  4.9665377215847844e-04 4.8517301033940911e-04 0.0000000000000000e+00  4.9651426900187761e-04 4.8440664113739388e-04 0.0000000000000000e+00  4.9638045201322290e-04 4.8364461937861966e-04 0.0000000000000000e+00  4.9625240740020491e-04 4.8288676211341944e-04 0.0000000000000000e+00  4.9613023722746489e-04 4.8213289254813970e-04 0.0000000000000000e+00  4.9601403967408511e-04 4.8138282326524258e-04 0.0000000000000000e+00  4.9590389142046035e-04 4.8063639479421403e-04 0.0000000000000000e+00  4.9579990168430741e-04 4.7989343330458173e-04 0.0000000000000000e+00  4.9570214147644492e-04 4.7915378406388555e-04 0.0000000000000000e+00  4.9561073917943539e-04 4.7841730579702591e-04 0.0000000000000000e+00  4.9552574737085089e-04 4.7768385227368502e-04 0.0000000000000000e+00  4.9544730728503638e-04 4.7695326347826472e-04 0.0000000000000000e+00  4.9537548274057033e-04 4.7622539833500814e-04 0.0000000000000000e+00  4.9531036448437237e-04 4.7550011838037734e-04 0.0000000000000000e+00  4.9525212584914497e-04 4.7477730037877677e-04 0.0000000000000000e+00  4.9520078672173409e-04 4.7405680658976030e-04 0.0000000000000000e+00  4.9515652596301312e-04 4.7333849518169162e-04 0.0000000000000000e+00  4.9511942295549075e-04 4.7262222189253973e-04 0.0000000000000000e+00  4.9508962049231583e-04 4.7190784903499518e-04 0.0000000000000000e+00  4.9506726760214939e-04 4.7119525614015628e-04 0.0000000000000000e+00  4.9505246099168802e-04 4.7048428425123655e-04 0.0000000000000000e+00  4.9504535903438854e-04 4.6977479777039895e-04 0.0000000000000000e+00  4.9504611496984914e-04 4.6906661729277654e-04 0.0000000000000000e+00  4.9505491370208663e-04 4.6835960597524341e-04 0.0000000000000000e+00  4.9507195829565846e-04 4.6765362673214985e-04 0.0000000000000000e+00  4.9509732128654338e-04 4.6694849261569814e-04 0.0000000000000000e+00  4.9513134133347537e-04 4.6624397823329214e-04 0.0000000000000000e+00  4.9517418502195232e-04 4.6553993772311883e-04 0.0000000000000000e+00  4.9522601029417467e-04 4.6483618468778497e-04 0.0000000000000000e+00  4.9528722043882633e-04 4.6413242708096198e-04 0.0000000000000000e+00  4.9535792227544989e-04 4.6342845566280154e-04 0.0000000000000000e+00  4.9543857351058457e-04 4.6272403449357599e-04 0.0000000000000000e+00  4.9552934106438158e-04 4.6201889092834289e-04 0.0000000000000000e+00  4.9563072491756841e-04 4.6131266428357429e-04 0.0000000000000000e+00  4.9574298573293015e-04 4.6060502189638672e-04 0.0000000000000000e+00  4.9586658639934203e-04 4.5989561201342197e-04 0.0000000000000000e+00  4.9600201009605436e-04 4.5918397822551475e-04 0.0000000000000000e+00  4.9614967837638695e-04 4.5846966992933616e-04 0.0000000000000000e+00  4.9631024813053632e-04 4.5775209770403710e-04 0.0000000000000000e+00  4.9648411811534709e-04 4.5703070720541937e-04 0.0000000000000000e+00  4.9667237751855210e-04 4.5630471429300890e-04 0.0000000000000000e+00  4.9687516095760285e-04 4.5557343866619671e-04 0.0000000000000000e+00  4.9709372951305206e-04 4.5483571221511306e-04 0.0000000000000000e+00  4.9732879203464176e-04 4.5409048918596266e-04 0.0000000000000000e+00  4.9758118434062261e-04 4.5333650378470106e-04 0.0000000000000000e+00  4.9785213388127110e-04 4.5257204943011857e-04 0.0000000000000000e+00  4.9814269169762997e-04 4.5179525531367933e-04 0.0000000000000000e+00  4.9845442989206689e-04 4.5100344559309899e-04 0.0000000000000000e+00  4.9878783058122326e-04 4.5019370611282131e-04 0.0000000000000000e+00  4.9914458289040671e-04 4.4936180633758829e-04 0.0000000000000000e+00  4.9952530330670528e-04 4.4850234975113868e-04 0.0000000000000000e+00  4.9993016985398352e-04 4.4760811444825301e-04 0.0000000000000000e+00  5.0035936015347315e-04 4.4666875813541230e-04 0.0000000000000000e+00  5.0080839523470276e-04 4.4566868869373391e-04 0.0000000000000000e+00  5.0126780652844918e-04 4.4458469781248551e-04 0.0000000000000000e+00  5.0171660298992300e-04 4.4337420309908455e-04 0.0000000000000000e+00  5.0210111782131425e-04 4.4196595007960668e-04 0.0000000000000000e+00  5.0228528678167858e-04 4.4019479960739384e-04 0.0000000000000000e+00  5.0188546388601726e-04 4.3767583426994057e-04 0.0000000000000000e+00  3.6403988085485426e-04 2.8341201692757965e-04 0.0000000000000000e+00  3.4802232478158338e-04 2.7688642070517058e-04 0.0000000000000000e+00  3.1723959992791960e-04 2.6080622756281379e-04 0.0000000000000000e+00  2.0648561934169497e-04 1.8515944237478118e-04 0.0000000000000000e+00  1.1991161481344679e-04 1.1472425882587295e-04 0.0000000000000000e+00  0.0000000000000000e+00 0.0000000000000000e+00 0.0000000000000000e+00  0.0000000000000000e+00 0.0000000000000000e+00 0.0000000000000000e+00  0.0000000000000000e+00 0.0000000000000000e+00 0.0000000000000000e+00  0.0000000000000000e+00 0.0000000000000000e+00 0.0000000000000000e+00  0.0000000000000000e+00 0.0000000000000000e+00 0.0000000000000000e+00  0.0000000000000000e+00 0.0000000000000000e+00 0.0000000000000000e+00  0.0000000000000000e+00 0.0000000000000000e+00 0.0000000000000000e+00  0.0000000000000000e+00 0.0000000000000000e+00 0.0000000000000000e+00  3.7839671400653987e-05 3.4694232456733968e-06 0.0000000000000000e+00  8.6816173118750404e-05 1.6396398017604681e-05 0.0000000000000000e+00  1.8794243461831418e-04 4.3797669082841595e-05 0.0000000000000000e+00  2.3531326534433934e-04 5.6442964210484905e-05 0.0000000000000000e+00  2.7711738937693403e-04 6.8513707643953417e-05 0.0000000000000000e+00  6.3596011762287095e-04 7.1658798214607159e-04 0.0000000000000000e+00  6.5197767378196879e-04 7.2311357837090352e-04 0.0000000000000000e+00  6.8276039870194313e-04 7.3919377152035918e-04 0.0000000000000000e+00  7.9351437964012819e-04 8.1484055653439046e-04 0.0000000000000000e+00  8.8008838472420996e-04 8.8527574036420303e-04 0.0000000000000000e+00  1.0000000000000000e-03 1.0000000000000000e-03 0.0000000000000000e+00  1.0000000000000000e-03 1.0000000000000000e-03 0.0000000000000000e+00  1.0000000000000000e-03 1.0000000000000000e-03 0.0000000000000000e+00  1.0000000000000000e-03 1.0000000000000000e-03 0.0000000000000000e+00  1.0000000000000000e-03 1.0000000000000000e-03 0.0000000000000000e+00  1.0000000000000000e-03 1.0000000000000000e-03 0.0000000000000000e+00  1.0000000000000000e-03 1.0000000000000000e-03 0.0000000000000000e+00  1.0000000000000000e-03 1.0000000000000000e-03 0.0000000000000000e+00  9.6216032835046042e-04 9.9653057691627628e-04 0.0000000000000000e+00  9.1318382642503098e-04 9.8360360221481187e-04 0.0000000000000000e+00  8.1205756463210012e-04 9.5620233119374514e-04 0.0000000000000000e+00  7.6468673380189109e-04 9.4355703606618154e-04 0.0000000000000000e+00  7.2288260969063369e-04 9.3148629262201172e-04 0.0000000000000000e+00  6.8801623785981827e-04 9.0160940376922882e-04 0.0000000000000000e+00  6.7168425572426747e-04 8.7309650261992535e-04 0.0000000000000000e+00  6.5584840361749457e-04 8.4595741771840765e-04 0.0000000000000000e+00  6.4198784468133215e-04 8.2216096583621889e-04 0.0000000000000000e+00  6.3052309629703721e-04 8.0225327769622881e-04 0.0000000000000000e+00  6.2134042689371500e-04 7.8613435192229661e-04 0.0000000000000000e+00  6.1417458525749925e-04 7.7341872021974506e-04 0.0000000000000000e+00  6.0397381693720197e-04 7.5508005447543587e-04 0.0000000000000000e+00  5.9932069416581248e-04 7.4661137577878396e-04 0.0000000000000000e+00  5.9472780973539524e-04 7.3818355418794977e-04 0.0000000000000000e+00  5.9019285120943238e-04 7.2978729445877136e-04 0.0000000000000000e+00  5.8570693114623051e-04 7.2140754935686629e-04 0.0000000000000000e+00  5.8126567528502568e-04 7.1302685792844970e-04 0.0000000000000000e+00  5.7685720089116965e-04 7.0462169415942319e-04 0.0000000000000000e+00  5.7246739019891756e-04 6.9615908308168217e-04 0.0000000000000000e+00  5.6808209074485361e-04 6.8759901565457714e-04 0.0000000000000000e+00  5.6367776016130733e-04 6.7888338512345962e-04 0.0000000000000000e+00  5.5921809635564070e-04 6.6992510330196001e-04 0.0000000000000000e+00  5.5465140161678754e-04 6.6059253566085789e-04 0.0000000000000000e+00  5.4987162856096170e-04 6.5063872529820879e-04 0.0000000000000000e+00  4.4676931583327958e-04 4.7980298511880704e-04 0.0000000000000000e+00  4.4147977368212048e-04 4.6950464927102587e-04 0.0000000000000000e+00  4.3685142510663754e-04 4.6012593702446006e-04 0.0000000000000000e+00  4.3260880477653129e-04 4.5131329379982362e-04 0.0000000000000000e+00  4.2863854054601058e-04 4.4289167417707278e-04 0.0000000000000000e+00  4.2486327943554023e-04 4.3475234683908702e-04 0.0000000000000000e+00  4.2124273971738094e-04 4.2682759371158024e-04 0.0000000000000000e+00  4.1774994183329248e-04 4.1906911860938045e-04 0.0000000000000000e+00  4.1436022651946064e-04 4.1144245091400734e-04 0.0000000000000000e+00  4.1106572578832062e-04 4.0392680477920485e-04 0.0000000000000000e+00  4.0785598732938865e-04 3.9650634313217158e-04 0.0000000000000000e+00  4.0472462086787596e-04 3.8917173762575432e-04 0.0000000000000000e+00  4.0167365583011132e-04 3.8192037230935685e-04 0.0000000000000000e+00  3.6798935418521831e-04 2.8759919986201499e-04 0.0000000000000000e+00  3.7092076781535281e-04 2.9872434400171892e-04 0.0000000000000000e+00  3.7565684611549921e-04 3.1381197891720337e-04 0.0000000000000000e+00  3.8112615183867680e-04 3.2951355406235028e-04 0.0000000000000000e+00  3.8649425552384381e-04 3.4398853984383390e-04 0.0000000000000000e+00  3.9131664191099718e-04 3.5643523355474098e-04 0.0000000000000000e+00  3.9539392402927569e-04 3.6664823834789678e-04 0.0000000000000000e+00  6.3201064421171730e-04 7.1240079925800664e-04 0.0000000000000000e+00  6.2907923052724752e-04 7.0127565517908753e-04 0.0000000000000000e+00  6.2434315218074269e-04 6.8618802034564499e-04 0.0000000000000000e+00  6.1887384643429617e-04 6.7048644528498692e-04 0.0000000000000000e+00  6.1350574274390336e-04 6.5601145957530963e-04 0.0000000000000000e+00  6.0868335636039383e-04 6.4356476591929165e-04 0.0000000000000000e+00  6.0460607424833441e-04 6.3335176116659946e-04 0.0000000000000000e+00  5.9832634245968338e-04 6.1807962725921387e-04 0.0000000000000000e+00  5.9527537742842666e-04 6.1082826196630065e-04 0.0000000000000000e+00  5.9214401097386457e-04 6.0349365648252533e-04 0.0000000000000000e+00  5.8893427252229699e-04 5.9607319485742503e-04 0.0000000000000000e+00  5.8563977179894137e-04 5.8855754874395021e-04 0.0000000000000000e+00  5.8225005649333895e-04 5.8093088106940332e-04 0.0000000000000000e+