<?xml version="1.0"?>
<VTKFile type="UnstructuredGrid"  version="0.1"  >
<UnstructuredGrid>
<Piece  NumberOfPoints="24256" NumberOfCells="48358">
<Points>
<DataArray  type="Float64"  NumberOfComponents="3"  format="ascii">0 0 0  50 0 0  100 0 0  100 49.5 0  100 50.5 0  100 100 0  50 100 0  0 100 0  0 50.5 0  0 49.5 0  0 75 0  0 25 0  100 25 0  100 75 0  24.5 49.5 0  24.5 50.5 0  75.5 50.5 0  75.5 49.5 0  80 49.5 0  80 50.5 0  20 50.5 0  20 49.5 0  20 75 0  50 75 0  80 75 0  80 25 0  50 25 0  20 25 0  50 50 0  25 50 0  75 50 0  24.6913417161905 50.46193976625235 0  24.85355339060025 50.3535533905863 0  24.96193976626094 50.19134171616977 0  24.96193976626191 49.80865828383259 0  24.85355339060165 49.6464466094151 0  24.69134171619181 49.5380602337482 0  75.30865828380529 50.4619397662506 0  75.14644660940547 50.35355339059202 0  75.03806023374186 50.1913417161765 0  75.03806023374065 49.80865828382641 0  75.14644660940286 49.6464466094106 0  75.3086582838058 49.53806023374919 0  25.19951614622269 50 0  25.40142063054872 50 0  25.60574210295544 50 0  25.81250948266545 50 0  26.0217520778856 50 0  26.23349951676287 50 0  26.44778179878875 50 0  26.6646292257103 50 0  26.88407252000402 50 0  27.10614273817509 50 0  27.33087139223914 50 0  27.5582902617968 50 0  27.78843154377079 50 0  28.02132779859583 50 0  28.25701212732613 50 0  28.49551779753923 50 0  28.73687860057358 50 0  28.98112872321073 50 0  29.22830275592332 50 0  29.47843570044527 50 0  29.73156297669333 50 0  29.98772042906865 50 0  30.24694433216624 50 0  30.50927139591921 50 0  30.77473877020432 50 0  31.04338404893412 50 0  31.31524527366058 50 0  31.59036093671394 50 0  31.86876998390005 50 0  32.15051184795058 50 0  32.43562649009755 50 0  32.72415415620186 50 0  33.01613584464261 50 0  33.31161281585579 50 0  33.61062692242808 50 0  33.91322051012257 50 0  34.21943640671003 50 0  34.52931807773269 50 0  34.84290928650268 50 0  35.16025460694943 50 0  35.48139871583209 50 0  35.8063872838676 50 0  36.1352662367809 50 0  36.46808207817695 50 0  36.80488218829193 50 0  37.14571406174852 50 0  37.49062618898397 50 0  37.83966709981627 50 0  38.1928863950564 50 0  38.55033394694173 50 0  38.91206068919998 50 0  39.27811755190851 50 0  39.64855635406197 50 0  40.02342992204706 50 0  40.40279094884485 50 0  40.78669330115305 50 0  41.1751912579513 50 0  41.56834005356981 50 0  41.96619511805834 50 0  42.36881293145003 50 0  42.77625048200917 50 0  43.18856530542669 50 0  43.60581617975753 50 0  44.02806183666044 50 0  44.45536217468985 50 0  44.88777770917031 50 0  45.32536960312584 50 0  45.76820003270851 50 0  46.21633143285066 50 0  46.66982755007726 50 0  47.12875237761952 50 0  47.59317096415209 50 0  48.06314909969768 50 0  48.53875333639597 50 0  49.02005100772931 50 0  49.50711024626847 50 0  50.49288975371359 50 0  50.97994899223524 50 0  51.46124666355149 50 0  51.93685090023309 50 0  52.40682903576241 50 0  52.8712476222791 50 0  53.33017244980586 50 0  53.78366856701732 50 0  54.23179996714473 50 0  54.67463039671301 50 0  55.11222229065453 50 0  55.54463782512131 50 0  55.97193816313742 50 0  56.39418382002735 50 0  56.81143469434553 50 0  57.22374951775078 50 0  57.63118706829796 50 0  58.03380488167798 50 0  58.43165994615514 50 0  58.8248087417626 50 0  59.21330669855615 50 0  59.59720905086467 50 0  59.97657007766281 50 0  60.35144364564827 50 0  60.72188244780216 50 0  61.08793931051112 50 0  61.44966605276986 50 0  61.80711360465571 50 0  62.16033289989638 50 0  62.50937381072924 50 0  62.85428593796531 50 0  63.19511781142246 50 0  63.53191792153814 50 0  63.86473376293482 50 0  64.19361271585434 50 0  64.51860128389967 50 0  64.83974539279198 50 0  65.15709071324817 50 0  65.47068192202742 50 0  65.78056359305916 50 0  66.08677948965553 50 0  66.38937307735874 50 0  66.68838718393957 50 0  66.98386415516111 50 0  67.27584584361004 50 0  67.5643735097224 50 0  67.84948815187724 50 0  68.13123001593549 50 0  68.40963906312913 50 0  68.68475472618989 50 0  68.95661595092359 50 0  69.2252612296605 50 0  69.49072860395255 50 0  69.7530556677123 50 0  70.01227957081655 50 0  70.26843702319839 50 0  70.52156429945282 50 0  70.771697243981 50 0  71.01887127669971 50 0  71.26312139934282 50 0  71.504482202383 50 0  71.74298787260182 50 0  71.9786722013377 50 0  72.21156845616824 50 0  72.44170973814758 50 0  72.66912860771049 50 0  72.89385726177966 50 0  73.11592747995573 50 0  73.33537077425433 50 0  73.55221820118066 50 0  73.76650048321122 50 0  73.97824792209306 50 0  74.18749051731768 50 0  74.39425789703208 50 0  74.59857936944304 50 0  74.80048385377326 50 0  0 43.37500000000002 0  0 37.25000000000004 0  0 31.12500000000004 0  0 17.27826487323784 0  0 8.960276504660179 0  9.999999999957065 0 0  19.99999999992002 0 0  29.99999999990366 0 0  39.99999999994531 0 0  59.99999999989675 0 0  69.9999999997935 0 0  79.99999999969025 0 0  89.99999999981904 0 0  100 8.960276504556731 0  100 17.27826487314172 0  100 31.12499999999998 0  100 37.24999999999996 0  100 43.37499999999996 0  100 56.6250000000798 0  100 62.7500000001596 0  100 68.87500000009784 0  100 82.7217351268162 0  100 91.03972349540425 0  90.00000000006384 100 0  80.00000000012767 100 0  70.00000000019152 100 0  60.00000000007827 100 0  40.00000000007105 100 0  30.00000000012907 100 0  20.00000000012907 100 0  10.00000000007105 100 0  0 91.03972349540425 0  0 82.72173512681618 0  0 68.87500000009786 0  0 62.75000000015963 0  0 56.62500000007984 0  6.120412593464062 50.5 0  10.49556498072933 50.5 0  13.62312453054427 50.5 0  15.85884727978738 50.5 0  17.45704437958013 50.5 0  18.5995091469825 50.5 0  19.41619524474999 50.5 0  20.47515120167095 50.5 0  20.92019997326993 50.5 0  21.33705330448883 50.5 0  21.72749758188099 50.5 0  22.09320586309756 50.5 0  22.43574522275861 50.5 0  22.75658349581136 50.5 0  23.05709552442124 50.5 0  23.33856909343812 50.5 0  23.60221031035009 50.5 0  23.8491489196949 50.5 0  24.08044314138694 50.5 0  24.29708401977037 50.5 0  24.29708401977037 49.5 0  24.08044314138694 49.5 0  23.8491489196949 49.5 0  23.6022103103501 49.5 0  23.33856909343813 49.5 0  23.05709552442125 49.5 0  22.75658349581136 49.5 0  22.43574522275861 49.5 0  22.09320586309756 49.5 0  21.72749758188098 49.5 0  21.33705330448883 49.5 0  20.92019997326993 49.5 0  20.47515120167095 49.5 0  6.120412593464062 49.5 0  10.49556498072933 49.5 0  13.62312453054427 49.5 0  15.85884727978738 49.5 0  17.45704437958013 49.5 0  18.5995091469825 49.5 0  19.41619524474999 49.5 0  93.87958740647669 50.5 0  89.50443501919381 50.5 0  86.37687546938463 50.5 0  84.14115272015442 50.5 0  82.54295562037724 50.5 0  81.40049085299049 50.5 0  80.5838047552374 50.5 0  79.52484879832905 50.5 0  79.07980002673007 50.5 0  78.66294669551117 50.5 0  78.27250241811902 50.5 0  77.90679413690243 50.5 0  77.5642547772414 50.5 0  77.24341650418864 50.5 0  76.94290447557876 50.5 0  76.66143090656188 50.5 0  76.39778968964991 50.5 0  76.1508510803051 50.5 0  75.91955685861306 50.5 0  75.70291598022963 50.5 0  75.70291598022963 49.5 0  75.91955685861306 49.5 0  76.1508510803051 49.5 0  76.39778968964991 49.5 0  76.66143090656188 49.5 0  76.94290447557876 49.5 0  77.24341650418864 49.5 0  77.56425477724139 49.5 0  77.90679413690243 49.5 0  78.27250241811902 49.5 0  78.66294669551118 49.5 0  79.07980002673007 49.5 0  79.52484879832905 49.5 0  80.5838047552374 49.5 0  81.40049085299049 49.5 0  82.54295562037723 49.5 0  84.14115272015439 49.5 0  86.3768754693846 49.5 0  89.50443501919378 49.5 0  93.87958740647666 49.5 0  50 92.72111048148359 0  50 87.44430513406535 0  50 83.61890508869973 0  50 80.84569537599788 0  50 78.83526725030589 0  50 77.37781470319995 0  50 76.32123989355226 0  50 75.55527989155394 0  50 74.49999999999723 0  50 73.99999999999444 0  50 73.49999999999167 0  50 72.9999999999889 0  50 72.49999999998612 0  50 71.99999999998334 0  50 71.49999999998057 0  50 70.9999999999778 0  50 70.49999999997502 0  50 69.99999999997225 0  50 69.49999999996948 0  50 68.99999999996669 0  50 68.49999999996392 0  50 67.99999999996115 0  50 67.49999999995836 0  50 66.99999999995559 0  50 66.49999999995282 0  50 65.99999999995003 0  50 65.49999999994726 0  50 64.99999999994449 0  50 64.49999999994171 0  50 63.99999999993982 0  50 63.49999999994937 0  50 62.99999999996081 0  50 62.49999999997224 0  50 61.99999999998368 0  50 61.49999999999511 0  50 61.00000000000655 0  50 60.50000000001798 0  50 60.00000000002942 0  50 59.50000000004086 0  50 59.00000000004974 0  50 58.50000000004718 0  50 58.00000000004441 0  50 57.50000000004164 0  50 57.00000000003886 0  50 56.50000000003608 0  50 56.00000000003331 0  50 55.50000000003053 0  50 55.00000000002775 0  50 54.50000000002498 0  50 54.0000000000222 0  50 53.50000000001943 0  50 53.00000000001666 0  50 52.50000000001388 0  50 52.0000000000111 0  50 51.50000000000833 0  50 51.00000000000556 0  50 50.50000000000278 0  50 49.50000000000319 0  50 49.00000000000639 0  50 48.50000000000958 0  50 48.00000000001277 0  50 47.50000000001596 0  50 47.00000000001916 0  50 46.50000000002235 0  50 46.00000000002554 0  50 45.50000000002873 0  50 45.00000000003192 0  50 44.50000000003512 0  50 44.00000000003831 0  50 43.5000000000415 0  50 43.00000000004469 0  50 42.50000000004789 0  50 42.00000000005108 0  50 41.50000000005427 0  50 41.00000000005746 0  50 40.50000000006066 0  50 40.00000000006385 0  50 39.50000000006704 0  50 39.00000000007024 0  50 38.50000000007343 0  50 38.00000000007662 0  50 37.50000000007981 0  50 37.00000000008301 0  50 36.5000000000862 0  50 36.00000000008939 0  50 35.50000000009258 0  50 35.00000000009578 0  50 34.50000000009896 0  50 34.0000000000996 0  50 33.50000000008881 0  50 33.00000000007779 0  50 32.50000000006678 0  50 32.00000000005598 0  50 31.5000000000509 0  50 31.00000000004698 0  50 30.50000000004307 0  50 30.00000000003915 0  50 29.50000000003524 0  50 29.00000000003132 0  50 28.50000000002741 0  50 28.00000000002349 0  50 27.50000000001958 0  50 27.0
[...]
<PointData  Scalars="Phase field"> 
<DataArray  type="Float64"  Name="Phase field"  format="ascii">2.9999999999999999e-16  2.9999999999999999e-16  2.9999999999999999e-16  2.9999999999999999e-16  3.0000000000000014e-16  2.9999999999999999e-16  2.9999999999999999e-16  2.9999999999999999e-16  2.9999999999999999e-16  3.0000000000000004e-16  2.9999999999999999e-16  2.9999999999999999e-16  2.9999999999999999e-16  2.9999999999999999e-16  1.2151961738951461e-03  1.7044484702592578e-05  1.2151961532652236e-03  1.7044484553029846e-05  2.9999999993271681e-16  2.9999999807039470e-16  3.0000000008287161e-16  2.9999999820989952e-16  2.9999999999999999e-16  2.9999999999999999e-16  2.9999999999999999e-16  2.9999999999999999e-16  2.9999999999999999e-16  2.9999999999999999e-16  2.9999999999999999e-16  1.2586901831343077e-02  1.2586901749800568e-02  1.1695227692465739e-04  1.1747262594735833e-03  5.8566788631924408e-03  1.5300659910899329e-02  1.2486462347702818e-02  5.0369891539882835e-03  5.0369890926287245e-03  1.2486462248313726e-02  1.5300659807578665e-02  5.8566788201411674e-03  1.1747262493314653e-03  1.1695227589716327e-04  7.0669625288514943e-03  1.6775917135545548e-03  2.5879471880089491e-04  3.4268179917138382e-05  4.7031716328097209e-06  5.3360546156458904e-07  6.8726506162094378e-08  8.4671749623501748e-09  9.8423762247411009e-10  1.2677268460579812e-10  1.4720766029889646e-11  1.6803425442212134e-12  1.9241436025849887e-13  1.9136483155294981e-14  1.6699873389945006e-15  3.2599671674988860e-16  2.9987267347821291e-16  2.9999308331453192e-16  2.9999995828034525e-16  3.0000000795893264e-16  3.0000000077893328e-16  3.0000000005733623e-16  3.0000000000216828e-16  3.0000000000009559e-16  3.0000000000000285e-16  3.0000000000000009e-16  2.9999999999999999e-16  2.9999999999999999e-16  2.9999999999999999e-16  2.9999999999999999e-16  2.9999999999999999e-16  2.9999999999999999e-16  2.9999999999999999e-16  2.9999999999999999e-16  2.9999999999999999e-16  2.9999999999999999e-16  2.9999999999999999e-16  2.9999999999999999e-16  2.9999999999999999e-16  2.9999999999999999e-16  2.9999999999999999e-16  2.9999999999999999e-16  2.9999999999999999e-16  2.9999999999999999e-16  2.9999999999999999e-16  2.9999999999999999e-16  2.9999999999999999e-16  2.9999999999999999e-16  2.9999999999999999e-16  2.9999999999999999e-16  2.9999999999999999e-16  2.9999999999999999e-16  2.9999999999999999e-16  2.9999999999999999e-16  2.9999999999999999e-16  2.9999999999999999e-16  2.9999999999999999e-16  2.9999999999999999e-16  2.9999999999999999e-16  2.9999999999999999e-16  2.9999999999999999e-16  2.9999999999999999e-16  2.9999999999999999e-16  2.9999999999999999e-16  2.9999999999999999e-16  2.9999999999999999e-16  2.9999999999999999e-16  2.9999999999999999e-16  2.9999999999999999e-16  2.9999999999999999e-16  2.9999999999999999e-16  2.9999999999999999e-16  2.9999999999999999e-16  2.9999999999999999e-16  2.9999999999999999e-16  2.9999999999999999e-16  2.9999999999999999e-16  2.9999999999999999e-16  2.9999999999999999e-16  2.9999999999999999e-16  2.9999999999999999e-16  2.9999999999999999e-16  2.9999999999999999e-16  2.9999999999999999e-16  2.9999999999999999e-16  2.9999999999999999e-16  2.9999999999999999e-16  2.9999999999999999e-16  2.9999999999999999e-16  2.9999999999999999e-16  2.9999999999999999e-16  2.9999999999999999e-16  2.9999999999999999e-16  2.9999999999999999e-16  2.9999999999999999e-16  2.9999999999999999e-16  2.9999999999999999e-16  2.9999999999999999e-16  2.9999999999999999e-16  2.9999999999999999e-16  2.9999999999999999e-16  2.9999999999999999e-16  2.9999999999999999e-16  2.9999999999999999e-16  2.9999999999999999e-16  2.9999999999999999e-16  2.9999999999999999e-16  2.9999999999999999e-16  2.9999999999999999e-16  2.9999999999999999e-16  2.9999999999999999e-16  2.9999999999999999e-16  2.9999999999999999e-16  2.9999999999999999e-16  2.9999999999999999e-16  2.9999999999999999e-16  2.9999999999999999e-16  2.9999999999999999e-16  2.9999999999999999e-16  2.9999999999999999e-16  2.9999999999999999e-16  2.9999999999999999e-16  2.9999999999999999e-16  2.9999999999999999e-16  2.9999999999999999e-16  2.9999999999999999e-16  3.0000000000000009e-16  3.0000000000000285e-16  3.0000000000009564e-16  3.0000000000216862e-16  3.0000000005734224e-16  3.0000000077897790e-16  3.0000000796531477e-16  2.9999995846812546e-16  2.9999309656924501e-16  2.9987300909317883e-16  3.2599665812176161e-16  1.6699849032707302e-15  1.9136261468748293e-14  1.9241561108824914e-13  1.6803395290702066e-12  1.4720770386679242e-11  1.2677247300179580e-10  9.8423674729359108e-10  8.4671715134297875e-09  6.8726497089621610e-08  5.3360544616634332e-07  4.7031715408104867e-06  3.4268179264345343e-05  2.5879471420463653e-04  1.6775916854227786e-03  7.0669624604505731e-03  2.9999999999999999e-16  2.9999999999999999e-16  2.9999999999999999e-16  2.9999999999999999e-16  2.9999999999999999e-16  2.9999999999999999e-16  2.9999999999999999e-16  2.9999999999999999e-16  2.9999999999999999e-16  2.9999999999999999e-16  2.9999999999999999e-16  2.9999999999999999e-16  2.9999999999999999e-16  2.9999999999999999e-16  2.9999999999999999e-16  2.9999999999999999e-16  2.9999999999999999e-16  2.9999999999999999e-16  2.9999999999999999e-16  2.9999999999999999e-16  2.9999999999999999e-16  2.9999999999999999e-16  2.9999999999999999e-16  2.9999999999999999e-16  2.9999999999999999e-16  2.9999999999999999e-16  2.9999999999999999e-16  2.9999999999999999e-16  2.9999999999999999e-16  2.9999999999999999e-16  2.9999999999999999e-16  2.9999999999999999e-16  2.9999999999999999e-16  2.9999999999999999e-16  2.9999999999999999e-16  2.9999999999999999e-16  2.9999999999999999e-16  3.0000000000000019e-16  2.9999999999999994e-16  3.0000000000000098e-16  2.9999999999998111e-16  3.0000000000049481e-16  2.9999999999399356e-16  2.9999999907676319e-16  3.0000001824426038e-16  3.0000001760925565e-16  3.0000012199354910e-16  2.9989494378360545e-16  3.0011288362032644e-16  9.3022111348380801e-14  2.5343862292199070e-12  5.4858365705155638e-11  1.1274440093469321e-09  1.5090024665260238e-08  1.7552237326769775e-07  1.5158768769972186e-06  1.1698500679802910e-04  1.3705890424542911e-05  1.1916810960543177e-06  8.9529201725548433e-08  4.3433912633590995e-09  1.9991700185678583e-10  7.3045369251311349e-12  2.5623997292022345e-16  2.9984392111075534e-16  3.0000441130923511e-16  2.9999920500252420e-16  2.9999965128252144e-16  3.0000001753094513e-16  2.9999999999999999e-16  3.0000000000000014e-16  3.0000000000000433e-16  2.9999999999996666e-16  3.0000000000056433e-16  2.9999999998992999e-16  3.0000000012671605e-16  3.0000000000000009e-16  2.9999999999999994e-16  3.0000000000000473e-16  2.9999999999996533e-16  3.0000000000058602e-16  2.9999999998947447e-16  3.0000000013388956e-16  3.0000001879681568e-16  2.9999959537125497e-16  2.9999902309654251e-16  3.0000675366570924e-16  2.9964081727326153e-16  2.5750955693112676e-16  7.3045374349138061e-12  1.9991698517047017e-10  4.3433908866508361e-09  8.9529197815617071e-08  1.1916810725161468e-06  1.3705890157910385e-05  1.1698500456120046e-04  1.5158768640938918e-06  1.7552237358235361e-07  1.5090024712026539e-08  1.1274442012604165e-09  5.4858373272220044e-11  2.5343862286143595e-12  9.3022065094190325e-14  3.0018271174382918e-16  2.9989103600937330e-16  3.0000057327227179e-16  2.9999995283328693e-16  2.9999997245791442e-16  3.0000000075967975e-16  3.0000000000390875e-16  2.9999999999970728e-16  3.0000000000000808e-16  2.9999999999999985e-16  3.0000000000000009e-16  3.0000000000000009e-16  2.9999999999999999e-16  2.9999999999999999e-16  2.9999999999999999e-16  2.9999999999999999e-16  2.9999999999999999e-16  2.9999999999999999e-16  2.9999999999999999e-16  2.9999999999999999e-16  2.9999999999999999e-16  2.9999999999999999e-16  2.9999999999999999e-16  2.9999999999999999e-16  2.9999999999999999e-16  2.9999999999999999e-16  2.9999999999999999e-16  2.9999999999999999e-16  2.9999999999999999e-16  2.9999999999999999e-16  2.9999999999999999e-16  2.9999999999999999e-16  2.9999999999999999e-16  2.9999999999999999e-16  2.9999999999999999e-16  2.9999999999999999e-16  2.9999999999999999e-16  2.9999999999999999e-16  2.9999999999999999e-16  2.9999999999999999e-16  2.9999999999999999e-16  2.9999999999999999e-16  2.9999999999999999e-16  2.9999999999999999e-16  2.9999999999999999e-16  2.9999999999999999e-16  2.9999999999999999e-16  2.9999999999999999e-16  2.9999999999999999e-16  2.9999999999999999e-16  2.9999999999999999e-16  2.9999999999999999e-16  2.9999999999999999e-16  2.9999999999999999e-16  2.9999999999999999e-16  2.9999999999999999e-16  2.9999999999999999e-16  2.9999999999999999e-16  2.9999999999999999e-16  2.9999999999999999e-16  2.9999999999999999e-16  2.9999999999999999e-16  2.9999999999999999e-16  2.9999999999999999e-16  2.9999999999999999e-16  2.9999999999999999e-16  2.9999999999999999e-16  2.9999999999999999e-16  2.9999999999999999e-16  2.9999999999999999e-16  2.9999999999999999e-16  2.9999999999999999e-16  2.9999999999999999e-16  2.9999999999999999e-16  2.9999999999999999e-16  2.9999999999999999e-16  2.9999999999999999e-16  2.9999999999999999e-16  2.9999999999999999e-16  2.9999999999999999e-16  2.9999999999999999e-16  2.9999999999999999e-16  2.9999999999999999e-16  2.9999999999999999e-16  2.9999999999999999e-16  2.9999999999999999e-16  2.9999999999999999e-16  2.9999999999999999e-16  2.9999999999999999e-16  2.9999999999999999e-16  2.9999999999999999e-16  2.9999999999999999e-16  2.9999999999999999e-16  2.9999999999999999e-16  2.9999999999999999e-16  2.9999999999999999e-16  2.9999999999999999e-16  2.9999999999999999e-16  2.9999999999999999e-16  2.9999999999999999e-16  2.9999999999999999e-16  2.9999999999999999e-16  2.9999999999999999e-16  2.9999999999999999e-16  2.9999999999999999e-16  2.9999999999999999e-16  2.9999999999999999e-16  2.9999999999999999e-16  2.9999999999999999e-16  2.9999999999999999e-16  2.9999999999999999e-16  2.9999999999999999e-16  2.9999999999999999e-16  2.9999999999999999e-16  2.9999999999999999e-16  2.9999999999999999e-16  2.9999999999999999e-16  2.9999999999999999e-16  2.9999999999999999e-16  2.9999999999999999e-16  2.9999999999999999e-16  2.9999999999999999e-16  2.9999999999999999e-16  2.9999999999999999e-16  2.9999999999999999e-16  2.9999999999999999e-16  2.9999999999999999e-16  2.9999999976484859e-16  2.9999999997305837e-16  2.9999999998490282e-16  3.0000000051184460e-16  3.0000000036934294e-16  2.9999999998709793e-16  3.0000000000092523e-16  2.9999999999997376e-16  3.0000000000000034e-16  3.0000000000000004e-16  2.9999999999999999e-16  2.9999999999999999e-16  2.9999999999999999e-16  2.9999999999999999e-16  2.9999999999999999e-16  2.9999999999999999e-16  2.9999999999999999e-16  2.9999999999999999e-16  2.9999999999999999e-16  2.9999999999999999e-16  2.9999999999999999e-16  2.9999999999999999e-16  2.9999999999999999e-16  2.9999999999999999e-16  2.9999999999999999e-16  2.9999999999999999e-16  2.9999999999999999e-16  2.9999999999999999e-16  2.9999999999999999e-16  2.9999999999999999e-16  2.9999999999999999e-16  2.9999999999999999e-16  2.9999999999999999e-16  2.9999999999999999e-16  2.9999999999999999e-16  2.9999999999999999e-16  2.9999999999999999e-16  2.9999999999999999e-16  2.9999999999999999e-16  2.9999999999999999e-16  2.9999999999999999e-16  2.9999999999999999e-16  2.9999999999999999e-16  2.9999999999999999e-16  2.9999999999999999e-16  2.9999999999999999e-16  2.9999999999999999e-16  2.9999999999999999e-16  2.9999999999999999e-16  2.9999999999999999e-16  2.9999999999999999e-16  2.9999999999999999e-16  2.9999999999999999e-16  2.9999999999999999e-16  2.9999999999999999e-16  2.9999999999999999e-16  2.9999999999999999e-16  2.9999999999999999e-16  2.9999999999999999e-16  2.9999999999999999e-16  2.9999999999999999e-16  2.9999999999999999e-16  2.9999999999999999e-16  2.9999999999999999e-16  2.9999999999999999e-16  2.9999999999999999e-16  2.9999999999999999e-16  2.9999999999999999e-16  2.9999999999999999e-16  2.9999999999999999e-16  2.9999999999999999e-16  2.9999999999999999e-16  2.9999999999999999e-16  2.9999999999999999e-16  2.9999999999999999e-16  2.9999999999999999e-16  2.9999999999999999e-16  2.9999999999999999e-16  2.9999999999999999e-16  2.9999999999999999e-16  2.9999999999999999e-16  2.9999999999999999e-16  2.9999999999999999e-16  2.9999999999999999e-16  2.9999999999999999e-16  2.9999999999999999e-16  2.9999999999999999e-16  2.9999999999999999e-16  2.9999999999999999e-16  2.9999999999999999e-16  2.9999999999999999e-16  2.9999999999999999e-16  2.9999999999999999e-16  2.9999999999999999e-16  2.9999999999999999e-16  2.9999999999999999e-16  2.9999999999999999e-16  2.9999999999999999e-16  2.9999999999999999e-16  2.9999999999999999e-16  2.9999999999999999e-16  2.9999999999999999e-16  2.9999999999999999e-16  2.9999999999999999e-16  2.9999999999999999e-16  2.9999999999999999e-16  2.9999999999999999e-16  2.9999999999999999e-16  2.9999999999999999e-16  2.9999999999999999e-16  2.9999999999999999e-16  2.9999999999999999e-16  2.9999999999999999e-16  2.9999999999999999e-16  2.9999999999999999e-16  2.9999999999999999e-16  2.9999999999999999e-16  2.9999999999999999e-16  2.9999999999999999e-16  2.9999999999999999e-16  2.9999999999999999e-16  2.9999999999999999e-16  2.9999999999999999e-16  2.9999999999999999e-16  2.9999999999999999e-16  2.9999999999999999e-16  2.9999999999999999e-16  2.9999999999999999e-16  2.9999999999999999e-16  2.9999999999999999e-16  2.9999999999999999e-16  2.9999999999999999e-16  2.9999999999999999e-16  2.9999999999999999e-16  2.9999999999999999e-16  2.9999999999999999e-16  2.9999999999999999e-16  2.9999999999999999e-16  2.9999999999999999e-16  2.9999999999999999e-16  2.9999999999999999e-16  2.9999999999999999e-16  2.9999999999999999e-16  2.9999999999999999e-16  2.9999999999999999e-16  2.9999999999999999e-16  2.9999999999999999e-16  2.9999999999999999e-16  2.9999999999999999e-16  2.9999999999999999e-16  2.9999999999999999e-16  2.9999999999999999e-16  2.9999999999999999e-16  2.9999999999999999e-16  2.9999999999999999e-16  2.9999999999999999e-16  2.9999999999999999e-16  2.9999999999999999e-16  2.9999999999999999e-16  2.9999999999999999e-16  2.9999999999999999e-16  2.9999999999999999e-16  2.9999999999999999e-16  2.9999999999999999e-16  2.9999999999999999e-16  2.9999999999999999e-16  2.9999999999999999e-16  2.9999999999999999e-16  2.9999999999999999e-16  2.9999999999999999e-16  2.9999999999999999e-16  2.9999999999999999e-16  2.9999999999999999e-16  2.9999999999999999e-16  2.9999999999999999e-16  2.9999999999999999e-16  2.9999999999999999e-16  2.9999999999999999e-16  2.9999999999999999e-16  2.9999999999999999e-16  2.9999999999999999e-16  2.9999999999999999e-16  2.9999999999999999e-16  2.9999999999999999e-16  2.9999999999999999e-16  2.9999999999999999e-16  2.9999999999999999e-16  2.9999999999999999e-16  2.9999999999999999e-16  2.9999999999999999e-16  2.9999999999999999e-16  2.9999999999999999e-16  2.9999999999999999e-16  2.9999999999999999e-16  2.9999999999999999e-16  2.9999999999999999e-16  2.9999999999999999e-16  2.9999999999999999e-16  2.9999999999999999e-16  2.9999999999999999e-16  2.9999999999999999e-16  2.9999999999999999e-16  2.9999999999999999e-16  2.9999999999999999e-16  2.9999999999999994e-16  2.9999999999999940e-16  3.0000000000001799e-16  2.9999999999966128e-16  3.0000000000211759e-16  2.9999999996529993e-16  2.9999999995209952e-16  3.0000000000514563e-16  2.9999999999268365e-16  2.9999999998421400e-16  2.9999999973480147e-16  2.9999999996881287e-16  2.9999999998622318e-16  3.0000000051156150e-16  3.0000000036933032e-16  2.9999999998709867e-16  3.0000000000092528e-16  2.9999999999997371e-16  3.0000000000000034e-16  3.0000000000000004e-16  2.9999999999999999e-16  2.9999999999999999e-16  2.9999999999999999e-16  2.9999999999999999e-16  2.9999999999999999e-16  2.9999999999999999e-16  2.9999999999999999e-16  2.9999999999999999e-16  2.9999999999999999e-16  2.9999999999999999e-16  2.9999999999999999e-16  2.9999999999999999e-16  2.9999999999999999e-16  2.9999999999999999e-16  2.9999999999999999e-16  2.9999999999999999e-16  2.9999999999999999e-16  2.9999999999999999e-16  2.9999999999999999e-16  2.9999999999999999e-16  2.9999999999999999e-16  2.9999999999999999e-16  2.9999999999999999e-16  2.9999999999999999e-16  2.9999999999999999e-16  2.9999999999999999e-16  2.9999999999999999e-16  2.9999999999999999e-16  2.9999999999999999e-16  2.9999999999999999e-16  2.9999999999999999e-16  2.9999999999999999e-16  2.9999999999999999e-16  2.9999999999999999e-16  2.9999999999999999e-16  2.9999999999999999e-16  2.9999999999999999e-16  2.9999999999999999e-16  2.9999999999999999e-16  2.9999999999999999e-16  2.9999999999999999e-16  2.9999999999999999e-16  2.9999999999999999e-16  2.9999999999999999e-16  2.9999999999999999e-16  2.9999999999999999e-16  2.9999999999999999e-16  2.9999999999999999e-16  2.9999999999999999e-16  2.9999999999999999e-16  2.9999999999999999e-16  2.9999999999999999e-16  2.9999999999999999e-16  2.9999999999999999e-16  2.9999999999999999e-16  2.9999999999999999e-16  2.9999999999999999e-16  2.9999999999999999e-16  2.9999999999999999e-16  2.9999999999999999e-16  2.9999999999999999e-16  2.9999999999999999e-16  2.9999999999999999e-16  2.9999999999999999e-16  2.9999999999999999e-16  2.9999999999999999e-16  2.9999999999999999e-16  2.9999999999999999e-16  2.9999999999999999e-16  2.9999999999999999e-16  2.9999999999999999e-16  2.9999999999999999e-16  2.9999999999999999e-16  2.9999999999999999e-16  2.9999999999999999e-16  2.9999999999999999e-16  2.9999999999999999e-16  2.9999999999999999e-16  2.9999999999999999e-16  2.9999999999999999e-16  2.9999999999999999e-16  2.9999999999999999e-16  2.9999999999999999e-16  2.9999999999999999e-16  2.9999999999999999e-16  2.9999999999999999e-16  2.9999999999999999e-16  2.9999999999999999e-16  2.9999999999999999e-16  2.9999999999999999e-16  2.9999999999999999e-16  2.9999999999999999e-16  2.9999999999999999e-16  2.9999999999999999e-16  2.9999999999999999e-16  2.9999999999999999e-16  2.9999999999999999e-16  2.9999999999999999e-16  2.9999999999999999e-16  2.9999999999999999e-16  2.9999999999999999e-16  2.9999999999999999e-16  2.9999999999999999e-16  2.9999999999999999e-16  2.9999999999999999e-16  2.9999999999999999e-16  2.9999999999999999e-16  2.9999999999999999e-16  2.9999999999999999e-16  2.9999999999999999e-16  2.9999999999999999e-16  2.9999999999999999e-16  2.9999999999999999e-16  2.9999999999999999e-16  2.9999999999999999e-16  2.9999999999999999e-16  2.9999999999999999e-16  2.9999999999999999e-16  2.9999999999999999e-16  2.9999999999999999e-16  2.9999999999999999e-16  2.9999999999999999e-16  2.9999999999999999e-16  2.9999999999999999e-16  2.9999999999999999e-16  2.9999999999999999e-16  2.9999999999999999e-16  2.9999999999999999e-16  2.9999999999999999e-16  2.9999999999999999e-16  2.9999999999999999e-16  2.9999999999999999e-16  2.9999999999999999e-16  2.9999999999999999e-16  2.9999999999999999e-16  2.9999999999999999e-16  2.9999999999999999e-16  2.9999999999999999e-16  2.9999999999999999e-16  2.9999999999999999e-16  2.9999999999999999e-16  2.9999999999999999e-16  2.9999999999999999e-16  2.9999999999999999e-16  2.9999999999999999e-16  2.9999999999999999e-16  2.9999999999999999e-16  2.9999999999999999e-16  2.9999999999999999e-16  2.9999999999999999e-16  2.9999999999999999e-16  2.9999999999999999e-16  2.9999999999999999e-16  2.9999999999999999e-16  2.9999999999999999e-16  2.9999999999999999e-16  2.9999999999999999e-16  2.9999999999999999e-16  2.9999999999999999e-16  2.9999999999999999e-16  2.9999999999999999e-16  2.9999999999999999e-16  2.9999999999999999e-16  2.9999999999999999e-16  2.9999999999999999e-16  2.9999999999999999e-16  2.9999999999999999e-16  2.9999999999999999e-16  2.9999999999999999e-16  2.9999999999999999e-16  2.9999999999999999e-16  2.9999999999999999e-16  2.9999999999999999e-16  2.9999999999999999e-16  2.9999999999999999e-16  2.9999999999999999e-16  2.9999999999999999e-16  2.9999999999999999e-16  2.9999999999999999e-16  2.9999999999999999e-16  2.999