<?xml version="1.0"?>
<VTKFile type="UnstructuredGrid"  version="0.1"  >
<UnstructuredGrid>
<Piece  NumberOfPoints="24256" NumberOfCells="48358">
<Points>
<DataArray  type="Float64"  NumberOfComponents="3"  format="ascii">0 0 0  50 0 0  100 0 0  100 49.5 0  100 50.5 0  100 100 0  50 100 0  0 100 0  0 50.5 0  0 49.5 0  0 75 0  0 25 0  100 25 0  100 75 0  24.5 49.5 0  24.5 50.5 0  75.5 50.5 0  75.5 49.5 0  80 49.5 0  80 50.5 0  20 50.5 0  20 49.5 0  20 75 0  50 75 0  80 75 0  80 25 0  50 25 0  20 25 0  50 50 0  25 50 0  75 50 0  24.6913417161905 50.46193976625235 0  24.85355339060025 50.3535533905863 0  24.96193976626094 50.19134171616977 0  24.96193976626191 49.80865828383259 0  24.85355339060165 49.6464466094151 0  24.69134171619181 49.5380602337482 0  75.30865828380529 50.4619397662506 0  75.14644660940547 50.35355339059202 0  75.03806023374186 50.1913417161765 0  75.03806023374065 49.80865828382641 0  75.14644660940286 49.6464466094106 0  75.3086582838058 49.53806023374919 0  25.19951614622269 50 0  25.40142063054872 50 0  25.60574210295544 50 0  25.81250948266545 50 0  26.0217520778856 50 0  26.23349951676287 50 0  26.44778179878875 50 0  26.6646292257103 50 0  26.88407252000402 50 0  27.10614273817509 50 0  27.33087139223914 50 0  27.5582902617968 50 0  27.78843154377079 50 0  28.02132779859583 50 0  28.25701212732613 50 0  28.49551779753923 50 0  28.73687860057358 50 0  28.98112872321073 50 0  29.22830275592332 50 0  29.47843570044527 50 0  29.73156297669333 50 0  29.98772042906865 50 0  30.24694433216624 50 0  30.50927139591921 50 0  30.77473877020432 50 0  31.04338404893412 50 0  31.31524527366058 50 0  31.59036093671394 50 0  31.86876998390005 50 0  32.15051184795058 50 0  32.43562649009755 50 0  32.72415415620186 50 0  33.01613584464261 50 0  33.31161281585579 50 0  33.61062692242808 50 0  33.91322051012257 50 0  34.21943640671003 50 0  34.52931807773269 50 0  34.84290928650268 50 0  35.16025460694943 50 0  35.48139871583209 50 0  35.8063872838676 50 0  36.1352662367809 50 0  36.46808207817695 50 0  36.80488218829193 50 0  37.14571406174852 50 0  37.49062618898397 50 0  37.83966709981627 50 0  38.1928863950564 50 0  38.55033394694173 50 0  38.91206068919998 50 0  39.27811755190851 50 0  39.64855635406197 50 0  40.02342992204706 50 0  40.40279094884485 50 0  40.78669330115305 50 0  41.1751912579513 50 0  41.56834005356981 50 0  41.96619511805834 50 0  42.36881293145003 50 0  42.77625048200917 50 0  43.18856530542669 50 0  43.60581617975753 50 0  44.02806183666044 50 0  44.45536217468985 50 0  44.88777770917031 50 0  45.32536960312584 50 0  45.76820003270851 50 0  46.21633143285066 50 0  46.66982755007726 50 0  47.12875237761952 50 0  47.59317096415209 50 0  48.06314909969768 50 0  48.53875333639597 50 0  49.02005100772931 50 0  49.50711024626847 50 0  50.49288975371359 50 0  50.97994899223524 50 0  51.46124666355149 50 0  51.93685090023309 50 0  52.40682903576241 50 0  52.8712476222791 50 0  53.33017244980586 50 0  53.78366856701732 50 0  54.23179996714473 50 0  54.67463039671301 50 0  55.11222229065453 50 0  55.54463782512131 50 0  55.97193816313742 50 0  56.39418382002735 50 0  56.81143469434553 50 0  57.22374951775078 50 0  57.63118706829796 50 0  58.03380488167798 50 0  58.43165994615514 50 0  58.8248087417626 50 0  59.21330669855615 50 0  59.59720905086467 50 0  59.97657007766281 50 0  60.35144364564827 50 0  60.72188244780216 50 0  61.08793931051112 50 0  61.44966605276986 50 0  61.80711360465571 50 0  62.16033289989638 50 0  62.50937381072924 50 0  62.85428593796531 50 0  63.19511781142246 50 0  63.53191792153814 50 0  63.86473376293482 50 0  64.19361271585434 50 0  64.51860128389967 50 0  64.83974539279198 50 0  65.15709071324817 50 0  65.47068192202742 50 0  65.78056359305916 50 0  66.08677948965553 50 0  66.38937307735874 50 0  66.68838718393957 50 0  66.98386415516111 50 0  67.27584584361004 50 0  67.5643735097224 50 0  67.84948815187724 50 0  68.13123001593549 50 0  68.40963906312913 50 0  68.68475472618989 50 0  68.95661595092359 50 0  69.2252612296605 50 0  69.49072860395255 50 0  69.7530556677123 50 0  70.01227957081655 50 0  70.26843702319839 50 0  70.52156429945282 50 0  70.771697243981 50 0  71.01887127669971 50 0  71.26312139934282 50 0  71.504482202383 50 0  71.74298787260182 50 0  71.9786722013377 50 0  72.21156845616824 50 0  72.44170973814758 50 0  72.66912860771049 50 0  72.89385726177966 50 0  73.11592747995573 50 0  73.33537077425433 50 0  73.55221820118066 50 0  73.76650048321122 50 0  73.97824792209306 50 0  74.18749051731768 50 0  74.39425789703208 50 0  74.59857936944304 50 0  74.80048385377326 50 0  0 43.37500000000002 0  0 37.25000000000004 0  0 31.12500000000004 0  0 17.27826487323784 0  0 8.960276504660179 0  9.999999999957065 0 0  19.99999999992002 0 0  29.99999999990366 0 0  39.99999999994531 0 0  59.99999999989675 0 0  69.9999999997935 0 0  79.99999999969025 0 0  89.99999999981904 0 0  100 8.960276504556731 0  100 17.27826487314172 0  100 31.12499999999998 0  100 37.24999999999996 0  100 43.37499999999996 0  100 56.6250000000798 0  100 62.7500000001596 0  100 68.87500000009784 0  100 82.7217351268162 0  100 91.03972349540425 0  90.00000000006384 100 0  80.00000000012767 100 0  70.00000000019152 100 0  60.00000000007827 100 0  40.00000000007105 100 0  30.00000000012907 100 0  20.00000000012907 100 0  10.00000000007105 100 0  0 91.03972349540425 0  0 82.72173512681618 0  0 68.87500000009786 0  0 62.75000000015963 0  0 56.62500000007984 0  6.120412593464062 50.5 0  10.49556498072933 50.5 0  13.62312453054427 50.5 0  15.85884727978738 50.5 0  17.45704437958013 50.5 0  18.5995091469825 50.5 0  19.41619524474999 50.5 0  20.47515120167095 50.5 0  20.92019997326993 50.5 0  21.33705330448883 50.5 0  21.72749758188099 50.5 0  22.09320586309756 50.5 0  22.43574522275861 50.5 0  22.75658349581136 50.5 0  23.05709552442124 50.5 0  23.33856909343812 50.5 0  23.60221031035009 50.5 0  23.8491489196949 50.5 0  24.08044314138694 50.5 0  24.29708401977037 50.5 0  24.29708401977037 49.5 0  24.08044314138694 49.5 0  23.8491489196949 49.5 0  23.6022103103501 49.5 0  23.33856909343813 49.5 0  23.05709552442125 49.5 0  22.75658349581136 49.5 0  22.43574522275861 49.5 0  22.09320586309756 49.5 0  21.72749758188098 49.5 0  21.33705330448883 49.5 0  20.92019997326993 49.5 0  20.47515120167095 49.5 0  6.120412593464062 49.5 0  10.49556498072933 49.5 0  13.62312453054427 49.5 0  15.85884727978738 49.5 0  17.45704437958013 49.5 0  18.5995091469825 49.5 0  19.41619524474999 49.5 0  93.87958740647669 50.5 0  89.50443501919381 50.5 0  86.37687546938463 50.5 0  84.14115272015442 50.5 0  82.54295562037724 50.5 0  81.40049085299049 50.5 0  80.5838047552374 50.5 0  79.52484879832905 50.5 0  79.07980002673007 50.5 0  78.66294669551117 50.5 0  78.27250241811902 50.5 0  77.90679413690243 50.5 0  77.5642547772414 50.5 0  77.24341650418864 50.5 0  76.94290447557876 50.5 0  76.66143090656188 50.5 0  76.39778968964991 50.5 0  76.1508510803051 50.5 0  75.91955685861306 50.5 0  75.70291598022963 50.5 0  75.70291598022963 49.5 0  75.91955685861306 49.5 0  76.1508510803051 49.5 0  76.39778968964991 49.5 0  76.66143090656188 49.5 0  76.94290447557876 49.5 0  77.24341650418864 49.5 0  77.56425477724139 49.5 0  77.90679413690243 49.5 0  78.27250241811902 49.5 0  78.66294669551118 49.5 0  79.07980002673007 49.5 0  79.52484879832905 49.5 0  80.5838047552374 49.5 0  81.40049085299049 49.5 0  82.54295562037723 49.5 0  84.14115272015439 49.5 0  86.3768754693846 49.5 0  89.50443501919378 49.5 0  93.87958740647666 49.5 0  50 92.72111048148359 0  50 87.44430513406535 0  50 83.61890508869973 0  50 80.84569537599788 0  50 78.83526725030589 0  50 77.37781470319995 0  50 76.32123989355226 0  50 75.55527989155394 0  50 74.49999999999723 0  50 73.99999999999444 0  50 73.49999999999167 0  50 72.9999999999889 0  50 72.49999999998612 0  50 71.99999999998334 0  50 71.49999999998057 0  50 70.9999999999778 0  50 70.49999999997502 0  50 69.99999999997225 0  50 69.49999999996948 0  50 68.99999999996669 0  50 68.49999999996392 0  50 67.99999999996115 0  50 67.49999999995836 0  50 66.99999999995559 0  50 66.49999999995282 0  50 65.99999999995003 0  50 65.49999999994726 0  50 64.99999999994449 0  50 64.49999999994171 0  50 63.99999999993982 0  50 63.49999999994937 0  50 62.99999999996081 0  50 62.49999999997224 0  50 61.99999999998368 0  50 61.49999999999511 0  50 61.00000000000655 0  50 60.50000000001798 0  50 60.00000000002942 0  50 59.50000000004086 0  50 59.00000000004974 0  50 58.50000000004718 0  50 58.00000000004441 0  50 57.50000000004164 0  50 57.00000000003886 0  50 56.50000000003608 0  50 56.00000000003331 0  50 55.50000000003053 0  50 55.00000000002775 0  50 54.50000000002498 0  50 54.0000000000222 0  50 53.50000000001943 0  50 53.00000000001666 0  50 52.50000000001388 0  50 52.0000000000111 0  50 51.50000000000833 0  50 51.00000000000556 0  50 50.50000000000278 0  50 49.50000000000319 0  50 49.00000000000639 0  50 48.50000000000958 0  50 48.00000000001277 0  50 47.50000000001596 0  50 47.00000000001916 0  50 46.50000000002235 0  50 46.00000000002554 0  50 45.50000000002873 0  50 45.00000000003192 0  50 44.50000000003512 0  50 44.00000000003831 0  50 43.5000000000415 0  50 43.00000000004469 0  50 42.50000000004789 0  50 42.00000000005108 0  50 41.50000000005427 0  50 41.00000000005746 0  50 40.50000000006066 0  50 40.00000000006385 0  50 39.50000000006704 0  50 39.00000000007024 0  50 38.50000000007343 0  50 38.00000000007662 0  50 37.50000000007981 0  50 37.00000000008301 0  50 36.5000000000862 0  50 36.00000000008939 0  50 35.50000000009258 0  50 35.00000000009578 0  50 34.50000000009896 0  50 34.0000000000996 0  50 33.50000000008881 0  50 33.00000000007779 0  50 32.50000000006678 0  50 32.00000000005598 0  50 31.5000000000509 0  50 31.00000000004698 0  50 30.50000000004307 0  50 30.00000000003915 0  50 29.50000000003524 0  50 29.00000000003132 0  50 28.50000000002741 0  50 28.00000000002349 0  50 27.50000000001958 0  50 27.0
[...]
<PointData  Vectors="Displacement"> 
<DataArray  type="Float64"  Name="Displacement"  NumberOfComponents="3" format="ascii">0.0000000000000000e+00 0.0000000000000000e+00 0.0000000000000000e+00  0.0000000000000000e+00 0.0000000000000000e+00 0.0000000000000000e+00  0.0000000000000000e+00 0.0000000000000000e+00 0.0000000000000000e+00  6.0205137783292308e-04 1.5319216188720939e-04 0.0000000000000000e+00  1.2653512170138421e-03 1.4311888870921286e-03 0.0000000000000000e+00  2.0000000000000000e-03 2.0000000000000000e-03 0.0000000000000000e+00  2.0000000000000000e-03 2.0000000000000000e-03 0.0000000000000000e+00  2.0000000000000000e-03 2.0000000000000000e-03 0.0000000000000000e+00  1.3979486202289947e-03 1.8468078386226603e-03 0.0000000000000000e+00  7.3464877983804664e-04 5.6881111107616596e-04 0.0000000000000000e+00  1.7179763514992433e-03 1.9374061599553472e-03 0.0000000000000000e+00  5.4824019586848958e-04 4.6778680016290358e-04 0.0000000000000000e+00  2.8202364724301836e-04 6.2593840574297479e-05 0.0000000000000000e+00  1.4517598015213844e-03 1.5322131979021558e-03 0.0000000000000000e+00  9.0742140102355036e-04 9.8406407057604413e-04 0.0000000000000000e+00  1.0888421744791592e-03 1.2787154021795346e-03 0.0000000000000000e+00  1.0925785958203346e-03 1.0159359291141601e-03 0.0000000000000000e+00  9.1115782287709991e-04 7.2128459790823322e-04 0.0000000000000000e+00  7.8261815343373838e-04 4.7280479545794762e-04 0.0000000000000000e+00  1.2026006312791315e-03 1.2504980261132110e-03 0.0000000000000000e+00  1.2173818442707525e-03 1.5271952048066134e-03 0.0000000000000000e+00  7.9739936528872772e-04 7.4950197297506431e-04 0.0000000000000000e+00  1.6918719727763547e-03 1.7591402051096003e-03 0.0000000000000000e+00  1.5791668378120620e-03 1.5308927373216905e-03 0.0000000000000000e+00  1.4906546075420355e-03 1.5495247009934799e-03 0.0000000000000000e+00  3.0812802598148797e-04 2.4085979523628262e-04 0.0000000000000000e+00  4.2083316154380900e-04 4.6910726401977302e-04 0.0000000000000000e+00  5.0934538846411984e-04 4.5047528975545963e-04 0.0000000000000000e+00  9.9999999866830312e-04 1.0000000002508623e-03 0.0000000000000000e+00  1.0013622914898754e-03 1.1338563026755803e-03 0.0000000000000000e+00  9.9863770561267801e-04 8.6614369725562530e-04 0.0000000000000000e+00  1.0739140055662053e-03 1.2501463901601140e-03 0.0000000000000000e+00  1.0529011643346409e-03 1.2147880166002122e-03 0.0000000000000000e+00  1.0280980601626742e-03 1.1754541320216549e-03 0.0000000000000000e+00  9.7462982943744697e-04 1.0921197281503535e-03 0.0000000000000000e+00  9.4914400839485877e-04 1.0520536365770904e-03 0.0000000000000000e+00  9.2621539701341355e-04 1.0151295743136527e-03 0.0000000000000000e+00  1.0737845998806742e-03 9.8487042543405397e-04 0.0000000000000000e+00  1.0508559885632164e-03 9.4794636323580739e-04 0.0000000000000000e+00  1.0253701675914291e-03 9.0788027172458068e-04 0.0000000000000000e+00  9.7190193701445697e-04 8.2454586796086907e-04 0.0000000000000000e+00  9.4709883291313826e-04 7.8521198342649222e-04 0.0000000000000000e+00  9.2608599174382367e-04 7.4985360990333029e-04 0.0000000000000000e+00  9.9622906932362969e-04 1.1246483313706163e-03 0.0000000000000000e+00  9.9542942353127249e-04 1.1196104006895578e-03 0.0000000000000000e+00  9.9579776145256212e-04 1.1160680997443083e-03 0.0000000000000000e+00  9.9656679111649214e-04 1.1132515937072158e-03 0.0000000000000000e+00  9.9746438404081932e-04 1.1108306042838291e-03 0.0000000000000000e+00  9.9838320662978580e-04 1.1086626225258038e-03 0.0000000000000000e+00  9.9928127679376811e-04 1.1066624836476838e-03 0.0000000000000000e+00  1.0001396573943021e-03 1.1047837710278412e-03 0.0000000000000000e+00  1.0009493904904279e-03 1.1029953004283925e-03 0.0000000000000000e+00  1.0017108313246205e-03 1.1012763872622264e-03 0.0000000000000000e+00  1.0024243359446107e-03 1.0996125877188491e-03 0.0000000000000000e+00  1.0030911373245860e-03 1.0979931087657052e-03 0.0000000000000000e+00  1.0037146137151793e-03 1.0964094893322503e-03 0.0000000000000000e+00  1.0042957293496765e-03 1.0948559011073489e-03 0.0000000000000000e+00  1.0048376284328114e-03 1.0933269924063977e-03 0.0000000000000000e+00  1.0053424130466746e-03 1.0918190216123121e-03 0.0000000000000000e+00  1.0058125380918320e-03 1.0903285755626616e-03 0.0000000000000000e+00  1.0062496752047941e-03 1.0888531226693479e-03 0.0000000000000000e+00  1.0066552420850399e-03 1.0873905714247564e-03 0.0000000000000000e+00  1.0070317608936838e-03 1.0859385856091435e-03 0.0000000000000000e+00  1.0073795008656349e-03 1.0844958046212847e-03 0.0000000000000000e+00  1.0077006403763575e-03 1.0830606601802200e-03 0.0000000000000000e+00  1.0079959769395516e-03 1.0816320435975456e-03 0.0000000000000000e+00  1.0082668243356077e-03 1.0802087760315531e-03 0.0000000000000000e+00  1.0085140256711779e-03 1.0787899562755780e-03 0.0000000000000000e+00  1.0087385473047531e-03 1.0773746715112744e-03 0.0000000000000000e+00  1.0089413150140866e-03 1.0759622182319260e-03 0.0000000000000000e+00  1.0091228501247522e-03 1.0745519311117508e-03 0.0000000000000000e+00  1.0092841525982054e-03 1.0731430887836865e-03 0.0000000000000000e+00  1.0094255562747498e-03 1.0717351459578446e-03 0.0000000000000000e+00  1.0095479765674688e-03 1.0703276307547638e-03 0.0000000000000000e+00  1.0096516271154387e-03 1.0689201246947349e-03 0.0000000000000000e+00  1.0097373144960242e-03 1.0675120436850830e-03 0.0000000000000000e+00  1.0098053545936376e-03 1.0661030149310274e-03 0.0000000000000000e+00  1.0098560805792674e-03 1.0646927467089257e-03 0.0000000000000000e+00  1.0098901697703807e-03 1.0632807882335802e-03 0.0000000000000000e+00  1.0099077672389336e-03 1.0618667656093843e-03 0.0000000000000000e+00  1.0099092791140372e-03 1.0604504046650331e-03 0.0000000000000000e+00  1.0098950752037191e-03 1.0590314317142594e-03 0.0000000000000000e+00  1.0098654619871703e-03 1.0576094879473162e-03 0.0000000000000000e+00  1.0098207562113080e-03 1.0561843021685293e-03 0.0000000000000000e+00  1.0097611512895250e-03 1.0547555564643179e-03 0.0000000000000000e+00  1.0096869452791276e-03 1.0533230098968384e-03 0.0000000000000000e+00  1.0095984237664093e-03 1.0518863870914560e-03 0.0000000000000000e+00  1.0094957455163839e-03 1.0504453995241237e-03 0.0000000000000000e+00  1.0093792682507904e-03 1.0489997635315510e-03 0.0000000000000000e+00  1.0092490317433200e-03 1.0475492036328450e-03 0.0000000000000000e+00  1.0091053826593614e-03 1.0460934733567892e-03 0.0000000000000000e+00  1.0089485024927457e-03 1.0446322957762997e-03 0.0000000000000000e+00  1.0087785188806230e-03 1.0431653887398465e-03 0.0000000000000000e+00  1.0085957142916718e-03 1.0416924322162156e-03 0.0000000000000000e+00  1.0084001938810310e-03 1.0402131337447649e-03 0.0000000000000000e+00  1.0081922144138100e-03 1.0387272107752774e-03 0.0000000000000000e+00  1.0079719179116337e-03 1.0372343538428120e-03 0.0000000000000000e+00  1.0077395228099218e-03 1.0357342152864141e-03 0.0000000000000000e+00  1.0074951824694603e-03 1.0342264761650445e-03 0.0000000000000000e+00  1.0072390932483837e-03 1.0327107616435807e-03 0.0000000000000000e+00  1.0069714592759577e-03 1.0311867181346914e-03 0.0000000000000000e+00  1.0066924529675541e-03 1.0296539797390464e-03 0.0000000000000000e+00  1.0064023109839699e-03 1.0281121209506118e-03 0.0000000000000000e+00  1.0061011810369941e-03 1.0265607434363111e-03 0.0000000000000000e+00  1.0057892906039539e-03 1.0249993685678234e-03 0.0000000000000000e+00  1.0054668870529075e-03 1.0234275700366274e-03 0.0000000000000000e+00  1.0051341900418078e-03 1.0218448722316331e-03 0.0000000000000000e+00  1.0047913774761078e-03 1.0202507536389725e-03 0.0000000000000000e+00  1.0044388184319345e-03 1.0186446383376670e-03 0.0000000000000000e+00  1.0040766377613572e-03 1.0170259997717905e-03 0.0000000000000000e+00  1.0037051803283323e-03 1.0153942280936880e-03 0.0000000000000000e+00  1.0033247867273303e-03 1.0137486891905808e-03 0.0000000000000000e+00  1.0029356774651039e-03 1.0120887009970488e-03 0.0000000000000000e+00  1.0025382207536448e-03 1.0104135671035841e-03 0.0000000000000000e+00  1.0021327683166277e-03 1.0087225708117198e-03 0.0000000000000000e+00  1.0017197618586123e-03 1.0070148695347407e-03 0.0000000000000000e+00  1.0012994550983481e-03 1.0052896946196083e-03 0.0000000000000000e+00  1.0008724848922456e-03 1.0035460900994597e-03 0.0000000000000000e+00  1.0004391177037496e-03 1.0017832152244750e-03 0.0000000000000000e+00  9.9956087963266080e-04 9.9821678527699286e-04 0.0000000000000000e+00  9.9912751244355205e-04 9.9645391040111258e-04 0.0000000000000000e+00  9.9870054223643624e-04 9.9471030587945674e-04 0.0000000000000000e+00  9.9828023547477622e-04 9.9298513096222679e-04 0.0000000000000000e+00  9.9786722901500308e-04 9.9127742968258209e-04 0.0000000000000000e+00  9.9746177657589153e-04 9.8958643338752073e-04 0.0000000000000000e+00  9.9706431986201186e-04 9.8791129949033158e-04 0.0000000000000000e+00  9.9667521059705524e-04 9.8625131129257077e-04 0.0000000000000000e+00  9.9629481699304071e-04 9.8460577238476004e-04 0.0000000000000000e+00  9.9592335955673910e-04 9.8297400070149871e-04 0.0000000000000000e+00  9.9556117888263402e-04 9.8135536213001667e-04 0.0000000000000000e+00  9.9520861983471353e-04 9.7974924682269707e-04 0.0000000000000000e+00  9.9486580726505965e-04 9.7815512822362104e-04 0.0000000000000000e+00  9.9453311024981939e-04 9.7657243041183658e-04 0.0000000000000000e+00  9.9421070669446655e-04 9.7500063187349229e-04 0.0000000000000000e+00  9.9389881625697022e-04 9.7343925699751950e-04 0.0000000000000000e+00  9.9359768630540263e-04 9.7188787947540987e-04 0.0000000000000000e+00  9.9330754431711105e-04 9.7034602067886657e-04 0.0000000000000000e+00  9.9302853800390832e-04 9.6881328227483524e-04 0.0000000000000000e+00  9.9276090402659802e-04 9.6728923875728659e-04 0.0000000000000000e+00  9.9250481480056075e-04 9.6577352422688647e-04 0.0000000000000000e+00  9.9226047445508028e-04 9.6426578509632688e-04 0.0000000000000000e+00  9.9202807934831963e-04 9.6276564653053232e-04 0.0000000000000000e+00  9.9180778284106924e-04 9.6127278958847489e-04 0.0000000000000000e+00  9.9159980336876292e-04 9.5978686660920921e-04 0.0000000000000000e+00  9.9140428295303772e-04 9.5830756812781686e-04 0.0000000000000000e+00  9.9122147835901757e-04 9.5683461159409790e-04 0.0000000000000000e+00  9.9105149474184770e-04 9.5536770454741579e-04 0.0000000000000000e+00  9.9089461457021826e-04 9.5390652695657530e-04 0.0000000000000000e+00  9.9075096548128551e-04 9.5245079667006160e-04 0.0000000000000000e+00  9.9062072896888894e-04 9.5100023676079990e-04 0.0000000000000000e+00  9.9050425169843392e-04 9.4955460075759907e-04 0.0000000000000000e+00  9.9040157344361239e-04 9.4811361317956593e-04 0.0000000000000000e+00  9.9031305192617001e-04 9.4667699036342801e-04 0.0000000000000000e+00  9.9023884591112549e-04 9.4524444378512370e-04 0.0000000000000000e+00  9.9017924098477542e-04 9.4381569807003502e-04 0.0000000000000000e+00  9.9013453520444060e-04 9.4239051228035635e-04 0.0000000000000000e+00  9.9010492198351721e-04 9.4096856850251593e-04 0.0000000000000000e+00  9.9009071806891759e-04 9.3954959554083998e-04 0.0000000000000000e+00  9.9009222993983815e-04 9.3813323458559461e-04 0.0000000000000000e+00  9.9010982740431268e-04 9.3671921195052769e-04 0.0000000000000000e+00  9.9014391659145657e-04 9.3530725346434025e-04 0.0000000000000000e+00  9.9019464257322576e-04 9.3389698523143596e-04 0.0000000000000000e+00  9.9026268266708931e-04 9.3248795646662266e-04 0.0000000000000000e+00  9.9034837004404255e-04 9.3107987544627528e-04 0.0000000000000000e+00  9.9045202058848638e-04 9.2967236937560723e-04 0.0000000000000000e+00  9.9057444087778971e-04 9.2826485416196126e-04 0.0000000000000000e+00  9.9071584455103553e-04 9.2685691132563962e-04 0.0000000000000000e+00  9.9087714702130445e-04 9.2544806898718775e-04 0.0000000000000000e+00  9.9105868212889824e-04 9.2403778185672037e-04 0.0000000000000000e+00  9.9126144983527212e-04 9.2262532856718284e-04 0.0000000000000000e+00  9.9148597146599647e-04 9.2121004379280749e-04 0.0000000000000000e+00  9.9173317279882046e-04 9.1979122402687744e-04 0.0000000000000000e+00  9.9200402019224425e-04 9.1836795645106311e-04 0.0000000000000000e+00  9.9229935675290899e-04 9.1693933985870625e-04 0.0000000000000000e+00  9.9262049626120622e-04 9.1550419540810759e-04 0.0000000000000000e+00  9.9296823623082884e-04 9.1406141441087202e-04 0.0000000000000000e+00  9.9334475503723885e-04 9.1260942858605075e-04 0.0000000000000000e+00  9.9375032191534080e-04 9.1114687733242594e-04 0.0000000000000000e+00  9.9418745902623879e-04 9.0967142443025822e-04 0.0000000000000000e+00  9.9465758406941797e-04 9.0818097837195774e-04 0.0000000000000000e+00  9.9516236868137987e-04 9.0667300756943389e-04 0.0000000000000000e+00  9.9570426776267643e-04 9.0514409886026858e-04 0.0000000000000000e+00  9.9628538339539352e-04 9.0359051062738934e-04 0.0000000000000000e+00  9.9690885978426735e-04 9.0200689118622866e-04 0.0000000000000000e+00  9.9757566116257922e-04 9.0038741222567276e-04 0.0000000000000000e+00  9.9828916578094591e-04 8.9872361267520628e-04 0.0000000000000000e+00  9.9905060661354349e-04 8.9700469950230706e-04 0.0000000000000000e+00  9.9986033970809866e-04 8.9521622889653573e-04 0.0000000000000000e+00  1.0007187203070773e-03 8.9333751627085302e-04 0.0000000000000000e+00  1.0016167904695363e-03 8.9133737738749546e-04 0.0000000000000000e+00  1.0025356130570282e-03 8.8916939562499813e-04 0.0000000000000000e+00  1.0034332059799761e-03 8.8674840619819642e-04 0.0000000000000000e+00  1.0042022356427586e-03 8.8393190015924024e-04 0.0000000000000000e+00  1.0045705735634868e-03 8.8038959921481522e-04 0.0000000000000000e+00  1.0037709277721624e-03 8.7535166853990780e-04 0.0000000000000000e+00  7.2807976170984761e-04 5.6682403385521296e-04 0.0000000000000000e+00  6.9604464956329653e-04 5.5377284141039612e-04 0.0000000000000000e+00  6.3447919985595391e-04 5.2161245512568212e-04 0.0000000000000000e+00  4.1297123868345851e-04 3.7031888474960470e-04 0.0000000000000000e+00  2.3982322962693114e-04 2.2944851765177376e-04 0.0000000000000000e+00  0.0000000000000000e+00 0.0000000000000000e+00 0.0000000000000000e+00  0.0000000000000000e+00 0.0000000000000000e+00 0.0000000000000000e+00  0.0000000000000000e+00 0.0000000000000000e+00 0.0000000000000000e+00  0.0000000000000000e+00 0.0000000000000000e+00 0.0000000000000000e+00  0.0000000000000000e+00 0.0000000000000000e+00 0.0000000000000000e+00  0.0000000000000000e+00 0.0000000000000000e+00 0.0000000000000000e+00  0.0000000000000000e+00 0.0000000000000000e+00 0.0000000000000000e+00  0.0000000000000000e+00 0.0000000000000000e+00 0.0000000000000000e+00  7.5679342801330079e-05 6.9388464913350851e-06 0.0000000000000000e+00  1.7363234623754293e-04 3.2792796035193438e-05 0.0000000000000000e+00  3.7588486923670187e-04 8.7595338165666223e-05 0.0000000000000000e+00  4.7062653068876434e-04 1.1288592842095425e-04 0.0000000000000000e+00  5.5423477875396238e-04 1.3702741528789328e-04 0.0000000000000000e+00  1.2719202352458627e-03 1.4331759642921822e-03 0.0000000000000000e+00  1.3039553475640542e-03 1.4462271567418485e-03 0.0000000000000000e+00  1.3655207974039932e-03 1.4783875430407619e-03 0.0000000000000000e+00  1.5870287592803256e-03 1.6296811130688199e-03 0.0000000000000000e+00  1.7601767694484594e-03 1.7705514807284349e-03 0.0000000000000000e+00  2.0000000000000000e-03 2.0000000000000000e-03 0.0000000000000000e+00  2.0000000000000000e-03 2.0000000000000000e-03 0.0000000000000000e+00  2.0000000000000000e-03 2.0000000000000000e-03 0.0000000000000000e+00  2.0000000000000000e-03 2.0000000000000000e-03 0.0000000000000000e+00  2.0000000000000000e-03 2.0000000000000000e-03 0.0000000000000000e+00  2.0000000000000000e-03 2.0000000000000000e-03 0.0000000000000000e+00  2.0000000000000000e-03 2.0000000000000000e-03 0.0000000000000000e+00  2.0000000000000000e-03 2.0000000000000000e-03 0.0000000000000000e+00  1.9243206567009620e-03 1.9930611538325378e-03 0.0000000000000000e+00  1.8263676528501411e-03 1.9672072044296060e-03 0.0000000000000000e+00  1.6241151292643353e-03 1.9124046623874809e-03 0.0000000000000000e+00  1.5293734676039361e-03 1.8871140721323600e-03 0.0000000000000000e+00  1.4457652193814346e-03 1.8629725852440265e-03 0.0000000000000000e+00  1.3760324757198128e-03 1.8032188075384691e-03 0.0000000000000000e+00  1.3433685114487151e-03 1.7461930052398683e-03 0.0000000000000000e+00  1.3116968072351741e-03 1.6919148354368387e-03 0.0000000000000000e+00  1.2839756893628512e-03 1.6443219316724645e-03 0.0000000000000000e+00  1.2610461925942639e-03 1.6045065553924895e-03 0.0000000000000000e+00  1.2426808537876219e-03 1.5722687038446292e-03 0.0000000000000000e+00  1.2283491705151919e-03 1.5468374404395268e-03 0.0000000000000000e+00  1.2079476338745991e-03 1.5101601089509121e-03 0.0000000000000000e+00  1.1986413883318201e-03 1.4932227515576102e-03 0.0000000000000000e+00  1.1894556194709861e-03 1.4763671083759438e-03 0.0000000000000000e+00  1.1803857024190597e-03 1.4595745889175887e-03 0.0000000000000000e+00  1.1714138622926549e-03 1.4428150987137796e-03 0.0000000000000000e+00  1.1625313505702452e-03 1.4260537158569469e-03 0.0000000000000000e+00  1.1537144017825332e-03 1.4092433883188937e-03 0.0000000000000000e+00  1.1449347803980290e-03 1.3923181661634116e-03 0.0000000000000000e+00  1.1361641814899011e-03 1.3751980313092007e-03 0.0000000000000000e+00  1.1273555203228083e-03 1.3577667702469652e-03 0.0000000000000000e+00  1.1184361927114748e-03 1.3398502066039653e-03 0.0000000000000000e+00  1.1093028032337685e-03 1.3211850713217613e-03 0.0000000000000000e+00  1.0997432571221157e-03 1.3012774505964638e-03 0.0000000000000000e+00  8.9353863166673252e-04 9.5960597023766418e-04 0.0000000000000000e+00  8.8295954736441248e-04 9.3900929854210183e-04 0.0000000000000000e+00  8.7370285021344497e-04 9.2025187404896967e-04 0.0000000000000000e+00  8.6521760955323096e-04 9.0262658759969645e-04 0.0000000000000000e+00  8.5727708109218802e-04 8.8578334835419468e-04 0.0000000000000000e+00  8.4972655887124689e-04 8.6950469367822261e-04 0.0000000000000000e+00  8.4248547943492700e-04 8.5365518742320926e-04 0.0000000000000000e+00  8.3549988366674911e-04 8.3813823721880969e-04 0.0000000000000000e+00  8.2872045303908413e-04 8.2288490182806282e-04 0.0000000000000000e+00  8.2213145157680355e-04 8.0785360955845762e-04 0.0000000000000000e+00  8.1571197465893841e-04 7.9301268626439042e-04 0.0000000000000000e+00  8.0944924173591206e-04 7.7834347525155537e-04 0.0000000000000000e+00  8.0334731166038223e-04 7.6384074461875989e-04 0.0000000000000000e+00  7.3597870837058146e-04 5.7519839972407997e-04 0.0000000000000000e+00  7.4184153563085263e-04 5.9744868800348620e-04 0.0000000000000000e+00  7.5131369223114836e-04 6.2762395783445390e-04 0.0000000000000000e+00  7.6225230367750626e-04 6.5902710812474729e-04 0.0000000000000000e+00  7.7298851104784245e-04 6.8797707968771410e-04 0.0000000000000000e+00  7.8263328382215081e-04 7.1287046710952792e-04 0.0000000000000000e+00  7.9078784805870902e-04 7.3329647669583909e-04 0.0000000000000000e+00  1.2640212884235573e-03 1.4248015985160504e-03 0.0000000000000000e+00  1.2581584610546197e-03 1.4025513103582100e-03 0.0000000000000000e+00  1.2486863043616112e-03 1.3723760406913236e-03 0.0000000000000000e+00  1.2377476928687194e-03 1.3409728905700074e-03 0.0000000000000000e+00  1.2270114854879346e-03 1.3120229191506524e-03 0.0000000000000000e+00  1.2173667127209165e-03 1.2871295318386163e-03 0.0000000000000000e+00  1.2092121484967978e-03 1.2667035223332306e-03 0.0000000000000000e+00  1.1966526849194960e-03 1.2361592545184579e-03 0.0000000000000000e+00  1.1905507548569815e-03 1.2216565239326310e-03 0.0000000000000000e+00  1.1842880219478569e-03 1.2069873129650817e-03 0.0000000000000000e+00  1.1778685450447217e-03 1.1921463897148813e-03 0.0000000000000000e+00  1.1712795435980100e-03 1.1771150974879310e-03 0.0000000000000000e+00  1.1645001129868050e-03 1.1618617621388379e-03 0.0000000000000000e+