<?xml version="1.0"?>
<VTKFile type="UnstructuredGrid"  version="0.1"  >
<UnstructuredGrid>
<Piece  NumberOfPoints="24256" NumberOfCells="48358">
<Points>
<DataArray  type="Float64"  NumberOfComponents="3"  format="ascii">0 0 0  50 0 0  100 0 0  100 49.5 0  100 50.5 0  100 100 0  50 100 0  0 100 0  0 50.5 0  0 49.5 0  0 75 0  0 25 0  100 25 0  100 75 0  24.5 49.5 0  24.5 50.5 0  75.5 50.5 0  75.5 49.5 0  80 49.5 0  80 50.5 0  20 50.5 0  20 49.5 0  20 75 0  50 75 0  80 75 0  80 25 0  50 25 0  20 25 0  50 50 0  25 50 0  75 50 0  24.6913417161905 50.46193976625235 0  24.85355339060025 50.3535533905863 0  24.96193976626094 50.19134171616977 0  24.96193976626191 49.80865828383259 0  24.85355339060165 49.6464466094151 0  24.69134171619181 49.5380602337482 0  75.30865828380529 50.4619397662506 0  75.14644660940547 50.35355339059202 0  75.03806023374186 50.1913417161765 0  75.03806023374065 49.80865828382641 0  75.14644660940286 49.6464466094106 0  75.3086582838058 49.53806023374919 0  25.19951614622269 50 0  25.40142063054872 50 0  25.60574210295544 50 0  25.81250948266545 50 0  26.0217520778856 50 0  26.23349951676287 50 0  26.44778179878875 50 0  26.6646292257103 50 0  26.88407252000402 50 0  27.10614273817509 50 0  27.33087139223914 50 0  27.5582902617968 50 0  27.78843154377079 50 0  28.02132779859583 50 0  28.25701212732613 50 0  28.49551779753923 50 0  28.73687860057358 50 0  28.98112872321073 50 0  29.22830275592332 50 0  29.47843570044527 50 0  29.73156297669333 50 0  29.98772042906865 50 0  30.24694433216624 50 0  30.50927139591921 50 0  30.77473877020432 50 0  31.04338404893412 50 0  31.31524527366058 50 0  31.59036093671394 50 0  31.86876998390005 50 0  32.15051184795058 50 0  32.43562649009755 50 0  32.72415415620186 50 0  33.01613584464261 50 0  33.31161281585579 50 0  33.61062692242808 50 0  33.91322051012257 50 0  34.21943640671003 50 0  34.52931807773269 50 0  34.84290928650268 50 0  35.16025460694943 50 0  35.48139871583209 50 0  35.8063872838676 50 0  36.1352662367809 50 0  36.46808207817695 50 0  36.80488218829193 50 0  37.14571406174852 50 0  37.49062618898397 50 0  37.83966709981627 50 0  38.1928863950564 50 0  38.55033394694173 50 0  38.91206068919998 50 0  39.27811755190851 50 0  39.64855635406197 50 0  40.02342992204706 50 0  40.40279094884485 50 0  40.78669330115305 50 0  41.1751912579513 50 0  41.56834005356981 50 0  41.96619511805834 50 0  42.36881293145003 50 0  42.77625048200917 50 0  43.18856530542669 50 0  43.60581617975753 50 0  44.02806183666044 50 0  44.45536217468985 50 0  44.88777770917031 50 0  45.32536960312584 50 0  45.76820003270851 50 0  46.21633143285066 50 0  46.66982755007726 50 0  47.12875237761952 50 0  47.59317096415209 50 0  48.06314909969768 50 0  48.53875333639597 50 0  49.02005100772931 50 0  49.50711024626847 50 0  50.49288975371359 50 0  50.97994899223524 50 0  51.46124666355149 50 0  51.93685090023309 50 0  52.40682903576241 50 0  52.8712476222791 50 0  53.33017244980586 50 0  53.78366856701732 50 0  54.23179996714473 50 0  54.67463039671301 50 0  55.11222229065453 50 0  55.54463782512131 50 0  55.97193816313742 50 0  56.39418382002735 50 0  56.81143469434553 50 0  57.22374951775078 50 0  57.63118706829796 50 0  58.03380488167798 50 0  58.43165994615514 50 0  58.8248087417626 50 0  59.21330669855615 50 0  59.59720905086467 50 0  59.97657007766281 50 0  60.35144364564827 50 0  60.72188244780216 50 0  61.08793931051112 50 0  61.44966605276986 50 0  61.80711360465571 50 0  62.16033289989638 50 0  62.50937381072924 50 0  62.85428593796531 50 0  63.19511781142246 50 0  63.53191792153814 50 0  63.86473376293482 50 0  64.19361271585434 50 0  64.51860128389967 50 0  64.83974539279198 50 0  65.15709071324817 50 0  65.47068192202742 50 0  65.78056359305916 50 0  66.08677948965553 50 0  66.38937307735874 50 0  66.68838718393957 50 0  66.98386415516111 50 0  67.27584584361004 50 0  67.5643735097224 50 0  67.84948815187724 50 0  68.13123001593549 50 0  68.40963906312913 50 0  68.68475472618989 50 0  68.95661595092359 50 0  69.2252612296605 50 0  69.49072860395255 50 0  69.7530556677123 50 0  70.01227957081655 50 0  70.26843702319839 50 0  70.52156429945282 50 0  70.771697243981 50 0  71.01887127669971 50 0  71.26312139934282 50 0  71.504482202383 50 0  71.74298787260182 50 0  71.9786722013377 50 0  72.21156845616824 50 0  72.44170973814758 50 0  72.66912860771049 50 0  72.89385726177966 50 0  73.11592747995573 50 0  73.33537077425433 50 0  73.55221820118066 50 0  73.76650048321122 50 0  73.97824792209306 50 0  74.18749051731768 50 0  74.39425789703208 50 0  74.59857936944304 50 0  74.80048385377326 50 0  0 43.37500000000002 0  0 37.25000000000004 0  0 31.12500000000004 0  0 17.27826487323784 0  0 8.960276504660179 0  9.999999999957065 0 0  19.99999999992002 0 0  29.99999999990366 0 0  39.99999999994531 0 0  59.99999999989675 0 0  69.9999999997935 0 0  79.99999999969025 0 0  89.99999999981904 0 0  100 8.960276504556731 0  100 17.27826487314172 0  100 31.12499999999998 0  100 37.24999999999996 0  100 43.37499999999996 0  100 56.6250000000798 0  100 62.7500000001596 0  100 68.87500000009784 0  100 82.7217351268162 0  100 91.03972349540425 0  90.00000000006384 100 0  80.00000000012767 100 0  70.00000000019152 100 0  60.00000000007827 100 0  40.00000000007105 100 0  30.00000000012907 100 0  20.00000000012907 100 0  10.00000000007105 100 0  0 91.03972349540425 0  0 82.72173512681618 0  0 68.87500000009786 0  0 62.75000000015963 0  0 56.62500000007984 0  6.120412593464062 50.5 0  10.49556498072933 50.5 0  13.62312453054427 50.5 0  15.85884727978738 50.5 0  17.45704437958013 50.5 0  18.5995091469825 50.5 0  19.41619524474999 50.5 0  20.47515120167095 50.5 0  20.92019997326993 50.5 0  21.33705330448883 50.5 0  21.72749758188099 50.5 0  22.09320586309756 50.5 0  22.43574522275861 50.5 0  22.75658349581136 50.5 0  23.05709552442124 50.5 0  23.33856909343812 50.5 0  23.60221031035009 50.5 0  23.8491489196949 50.5 0  24.08044314138694 50.5 0  24.29708401977037 50.5 0  24.29708401977037 49.5 0  24.08044314138694 49.5 0  23.8491489196949 49.5 0  23.6022103103501 49.5 0  23.33856909343813 49.5 0  23.05709552442125 49.5 0  22.75658349581136 49.5 0  22.43574522275861 49.5 0  22.09320586309756 49.5 0  21.72749758188098 49.5 0  21.33705330448883 49.5 0  20.92019997326993 49.5 0  20.47515120167095 49.5 0  6.120412593464062 49.5 0  10.49556498072933 49.5 0  13.62312453054427 49.5 0  15.85884727978738 49.5 0  17.45704437958013 49.5 0  18.5995091469825 49.5 0  19.41619524474999 49.5 0  93.87958740647669 50.5 0  89.50443501919381 50.5 0  86.37687546938463 50.5 0  84.14115272015442 50.5 0  82.54295562037724 50.5 0  81.40049085299049 50.5 0  80.5838047552374 50.5 0  79.52484879832905 50.5 0  79.07980002673007 50.5 0  78.66294669551117 50.5 0  78.27250241811902 50.5 0  77.90679413690243 50.5 0  77.5642547772414 50.5 0  77.24341650418864 50.5 0  76.94290447557876 50.5 0  76.66143090656188 50.5 0  76.39778968964991 50.5 0  76.1508510803051 50.5 0  75.91955685861306 50.5 0  75.70291598022963 50.5 0  75.70291598022963 49.5 0  75.91955685861306 49.5 0  76.1508510803051 49.5 0  76.39778968964991 49.5 0  76.66143090656188 49.5 0  76.94290447557876 49.5 0  77.24341650418864 49.5 0  77.56425477724139 49.5 0  77.90679413690243 49.5 0  78.27250241811902 49.5 0  78.66294669551118 49.5 0  79.07980002673007 49.5 0  79.52484879832905 49.5 0  80.5838047552374 49.5 0  81.40049085299049 49.5 0  82.54295562037723 49.5 0  84.14115272015439 49.5 0  86.3768754693846 49.5 0  89.50443501919378 49.5 0  93.87958740647666 49.5 0  50 92.72111048148359 0  50 87.44430513406535 0  50 83.61890508869973 0  50 80.84569537599788 0  50 78.83526725030589 0  50 77.37781470319995 0  50 76.32123989355226 0  50 75.55527989155394 0  50 74.49999999999723 0  50 73.99999999999444 0  50 73.49999999999167 0  50 72.9999999999889 0  50 72.49999999998612 0  50 71.99999999998334 0  50 71.49999999998057 0  50 70.9999999999778 0  50 70.49999999997502 0  50 69.99999999997225 0  50 69.49999999996948 0  50 68.99999999996669 0  50 68.49999999996392 0  50 67.99999999996115 0  50 67.49999999995836 0  50 66.99999999995559 0  50 66.49999999995282 0  50 65.99999999995003 0  50 65.49999999994726 0  50 64.99999999994449 0  50 64.49999999994171 0  50 63.99999999993982 0  50 63.49999999994937 0  50 62.99999999996081 0  50 62.49999999997224 0  50 61.99999999998368 0  50 61.49999999999511 0  50 61.00000000000655 0  50 60.50000000001798 0  50 60.00000000002942 0  50 59.50000000004086 0  50 59.00000000004974 0  50 58.50000000004718 0  50 58.00000000004441 0  50 57.50000000004164 0  50 57.00000000003886 0  50 56.50000000003608 0  50 56.00000000003331 0  50 55.50000000003053 0  50 55.00000000002775 0  50 54.50000000002498 0  50 54.0000000000222 0  50 53.50000000001943 0  50 53.00000000001666 0  50 52.50000000001388 0  50 52.0000000000111 0  50 51.50000000000833 0  50 51.00000000000556 0  50 50.50000000000278 0  50 49.50000000000319 0  50 49.00000000000639 0  50 48.50000000000958 0  50 48.00000000001277 0  50 47.50000000001596 0  50 47.00000000001916 0  50 46.50000000002235 0  50 46.00000000002554 0  50 45.50000000002873 0  50 45.00000000003192 0  50 44.50000000003512 0  50 44.00000000003831 0  50 43.5000000000415 0  50 43.00000000004469 0  50 42.50000000004789 0  50 42.00000000005108 0  50 41.50000000005427 0  50 41.00000000005746 0  50 40.50000000006066 0  50 40.00000000006385 0  50 39.50000000006704 0  50 39.00000000007024 0  50 38.50000000007343 0  50 38.00000000007662 0  50 37.50000000007981 0  50 37.00000000008301 0  50 36.5000000000862 0  50 36.00000000008939 0  50 35.50000000009258 0  50 35.00000000009578 0  50 34.50000000009896 0  50 34.0000000000996 0  50 33.50000000008881 0  50 33.00000000007779 0  50 32.50000000006678 0  50 32.00000000005598 0  50 31.5000000000509 0  50 31.00000000004698 0  50 30.50000000004307 0  50 30.00000000003915 0  50 29.50000000003524 0  50 29.00000000003132 0  50 28.50000000002741 0  50 28.00000000002349 0  50 27.50000000001958 0  50 27.0
[...]
<PointData  Vectors="Displacement"> 
<DataArray  type="Float64"  Name="Displacement"  NumberOfComponents="3" format="ascii">0.0000000000000000e+00 0.0000000000000000e+00 0.0000000000000000e+00  0.0000000000000000e+00 0.0000000000000000e+00 0.0000000000000000e+00  0.0000000000000000e+00 0.0000000000000000e+00 0.0000000000000000e+00  9.0245194673479936e-04 2.2913676245717952e-04 0.0000000000000000e+00  1.8991585769209899e-03 2.1480554371817394e-03 0.0000000000000000e+00  3.0000000000000001e-03 3.0000000000000001e-03 0.0000000000000000e+00  3.0000000000000001e-03 3.0000000000000001e-03 0.0000000000000000e+00  3.0000000000000001e-03 3.0000000000000001e-03 0.0000000000000000e+00  2.0975480503661139e-03 2.7708632383152822e-03 0.0000000000000000e+00  1.1008414183396788e-03 8.5194456005104242e-04 0.0000000000000000e+00  2.5771469982583044e-03 2.9065137048942635e-03 0.0000000000000000e+00  8.2171902080813630e-04 7.0078619128331548e-04 0.0000000000000000e+00  4.2285299985690179e-04 9.3486295904995648e-05 0.0000000000000000e+00  2.1782809752717677e-03 2.2992138058027288e-03 0.0000000000000000e+00  1.3560167562356644e-03 1.4685335200039524e-03 0.0000000000000000e+00  1.6356895950000064e-03 1.9227127200967746e-03 0.0000000000000000e+00  1.6439832389568041e-03 1.5314664794358281e-03 0.0000000000000000e+00  1.3643104010681599e-03 1.0772872800927844e-03 0.0000000000000000e+00  1.1727621059383262e-03 7.0751477788672423e-04 0.0000000000000000e+00  1.8055242038033305e-03 1.8779867180944169e-03 0.0000000000000000e+00  1.8272378906342074e-03 2.2924852225312386e-03 0.0000000000000000e+00  1.1944757910244271e-03 1.1220132805099623e-03 0.0000000000000000e+00  2.5380893198107221e-03 2.6392703732573360e-03 0.0000000000000000e+00  2.3690391565439708e-03 2.2964980463420995e-03 0.0000000000000000e+00  2.2363846644190433e-03 2.3249166160254080e-03 0.0000000000000000e+00  4.6191067832880599e-04 3.6072962726843778e-04 0.0000000000000000e+00  6.3096084249338177e-04 7.0350195567442765e-04 0.0000000000000000e+00  7.6361532957314475e-04 6.7508337011739793e-04 0.0000000000000000e+00  1.4999999980022975e-03 1.5000000003762394e-03 0.0000000000000000e+00  1.5057257466985175e-03 1.7082573227256985e-03 0.0000000000000000e+00  1.4942742490050738e-03 1.2917426772633453e-03 0.0000000000000000e+00  1.6136408831151439e-03 1.8808378150792446e-03 0.0000000000000000e+00  1.5827532471105203e-03 1.8295939298701024e-03 0.0000000000000000e+00  1.5463258985315448e-03 1.7726919964956150e-03 0.0000000000000000e+00  1.4623638285768870e-03 1.6376860830127449e-03 0.0000000000000000e+00  1.4192289182485961e-03 1.5701720821395346e-03 0.0000000000000000e+00  1.3831619248338069e-03 1.5134571843660521e-03 0.0000000000000000e+00  1.6168380704232475e-03 1.4865428151429349e-03 0.0000000000000000e+00  1.5807710771337982e-03 1.4298279174932841e-03 0.0000000000000000e+00  1.5376361669774286e-03 1.3623139168072557e-03 0.0000000000000000e+00  1.4536740972901111e-03 1.2273080035901970e-03 0.0000000000000000e+00  1.4172467488083038e-03 1.1704060702602158e-03 0.0000000000000000e+00  1.3863591128885947e-03 1.1191621850856163e-03 0.0000000000000000e+00  1.4969441297934907e-03 1.6925603436346831e-03 0.0000000000000000e+00  1.4947135327598770e-03 1.6828750835119911e-03 0.0000000000000000e+00  1.4945520791007456e-03 1.6763137841825549e-03 0.0000000000000000e+00  1.4953125287400508e-03 1.6714363120221116e-03 0.0000000000000000e+00  1.4964291951480846e-03 1.6674297717141830e-03 0.0000000000000000e+00  1.4976691416387600e-03 1.6639423156052148e-03 0.0000000000000000e+00  1.4989275484731449e-03 1.6607813745249270e-03 0.0000000000000000e+00  1.5001561453984421e-03 1.6578471656638514e-03 0.0000000000000000e+00  1.5013303214416014e-03 1.6550766950634180e-03 0.0000000000000000e+00  1.5024441002541250e-03 1.6524296182096306e-03 0.0000000000000000e+00  1.5034941640325651e-03 1.6498786740786328e-03 0.0000000000000000e+00  1.5044798865074477e-03 1.6474040469523349e-03 0.0000000000000000e+00  1.5054047036627033e-03 1.6449905751606236e-03 0.0000000000000000e+00  1.5062689707097700e-03 1.6426278751402251e-03 0.0000000000000000e+00  1.5070766384913219e-03 1.6403066699413437e-03 0.0000000000000000e+00  1.5078303283064976e-03 1.6380204789269999e-03 0.0000000000000000e+00  1.5085333348056700e-03 1.6357635041055277e-03 0.0000000000000000e+00  1.5091878763824056e-03 1.6335314497282953e-03 0.0000000000000000e+00  1.5097958625796158e-03 1.6313207886421155e-03 0.0000000000000000e+00  1.5103609205979554e-03 1.6291276763919821e-03 0.0000000000000000e+00  1.5108833145065065e-03 1.6269498387187281e-03 0.0000000000000000e+00  1.5113662257787092e-03 1.6247847082825396e-03 0.0000000000000000e+00  1.5118107702911097e-03 1.6226304614984290e-03 0.0000000000000000e+00  1.5122188600036161e-03 1.6204851863373729e-03 0.0000000000000000e+00  1.5125917100856951e-03 1.6183474178465389e-03 0.0000000000000000e+00  1.5129307315830634e-03 1.6162156865408418e-03 0.0000000000000000e+00  1.5132372836575336e-03 1.6140888564768923e-03 0.0000000000000000e+00  1.5135121198984942e-03 1.6119658596883979e-03 0.0000000000000000e+00  1.5137567226739324e-03 1.6098455494945230e-03 0.0000000000000000e+00  1.5139715720333688e-03 1.6077270564856844e-03 0.0000000000000000e+00  1.5141580315044044e-03 1.6056096282463172e-03 0.0000000000000000e+00  1.5143164060033706e-03 1.6034925989842914e-03 0.0000000000000000e+00  1.5144478988824159e-03 1.6013750527755840e-03 0.0000000000000000e+00  1.5145529742926899e-03 1.5992564010158699e-03 0.0000000000000000e+00  1.5146321247238752e-03 1.5971361810866618e-03 0.0000000000000000e+00  1.5146863634161872e-03 1.5950136897351353e-03 0.0000000000000000e+00  1.5147159005894746e-03 1.5928883437902749e-03 0.0000000000000000e+00  1.5147213426029258e-03 1.5907597137254099e-03 0.0000000000000000e+00  1.5147032415759861e-03 1.5886273722745545e-03 0.0000000000000000e+00  1.5146620544139722e-03 1.5864907640016808e-03 0.0000000000000000e+00  1.5145982544455992e-03 1.5843494682303292e-03 0.0000000000000000e+00  1.5145121291355007e-03 1.5822029944127696e-03 0.0000000000000000e+00  1.5144041247246356e-03 1.5800509699938721e-03 0.0000000000000000e+00  1.5142746688332179e-03 1.5778929710172933e-03 0.0000000000000000e+00  1.5141239980508510e-03 1.5757285545258608e-03 0.0000000000000000e+00  1.5139526495122799e-03 1.5735572856186960e-03 0.0000000000000000e+00  1.5137606808355362e-03 1.5713787427719915e-03 0.0000000000000000e+00  1.5135486130707235e-03 1.5691925489345682e-03 0.0000000000000000e+00  1.5133167181568879e-03 1.5669982815890641e-03 0.0000000000000000e+00  1.5130651869406301e-03 1.5647955108290786e-03 0.0000000000000000e+00  1.5127944439663108e-03 1.5625837498538916e-03 0.0000000000000000e+00  1.5125046464976347e-03 1.5603625543017822e-03 0.0000000000000000e+00  1.5121961806428752e-03 1.5581314952456923e-03 0.0000000000000000e+00  1.5118692594804531e-03 1.5558901035019179e-03 0.0000000000000000e+00  1.5115242113814343e-03 1.5536378524141057e-03 0.0000000000000000e+00  1.5111612667296898e-03 1.5513742593547437e-03 0.0000000000000000e+00  1.5107807207232185e-03 1.5490987574310246e-03 0.0000000000000000e+00  1.5103828803973327e-03 1.5468108123857204e-03 0.0000000000000000e+00  1.5099680049971947e-03 1.5445098716947423e-03 0.0000000000000000e+00  1.5095364505828476e-03 1.5421952930157381e-03 0.0000000000000000e+00  1.5090884392326776e-03 1.5398664755536186e-03 0.0000000000000000e+00  1.5086243131678400e-03 1.5375226973955024e-03 0.0000000000000000e+00  1.5081444447319842e-03 1.5351633162098005e-03 0.0000000000000000e+00  1.5076491644086967e-03 1.5327876154224141e-03 0.0000000000000000e+00  1.5071387397781950e-03 1.5303948094510555e-03 0.0000000000000000e+00  1.5066137264118787e-03 1.5279840308029108e-03 0.0000000000000000e+00  1.5060743119584992e-03 1.5255544870024940e-03 0.0000000000000000e+00  1.5055210154955492e-03 1.5231052600404391e-03 0.0000000000000000e+00  1.5049543496164232e-03 1.5206353956125351e-03 0.0000000000000000e+00  1.5043746459368500e-03 1.5181438673488774e-03 0.0000000000000000e+00  1.5037824585755898e-03 1.5156296274967259e-03 0.0000000000000000e+00  1.5031783167754967e-03 1.5130915980765785e-03 0.0000000000000000e+00  1.5025628851478333e-03 1.5105285112213414e-03 0.0000000000000000e+00  1.5019365451915206e-03 1.5079392111954986e-03 0.0000000000000000e+00  1.5013002553090761e-03 1.5053222595931377e-03 0.0000000000000000e+00  1.5006544160378772e-03 1.5026763925068134e-03 0.0000000000000000e+00  1.4993455799664234e-03 1.4973236082452825e-03 0.0000000000000000e+00  1.4986997406943039e-03 1.4946777411576195e-03 0.0000000000000000e+00  1.4980634508103370e-03 1.4920607895530060e-03 0.0000000000000000e+00  1.4974371108519280e-03 1.4894714895240292e-03 0.0000000000000000e+00  1.4968216792216236e-03 1.4869084026648092e-03 0.0000000000000000e+00  1.4962175374183834e-03 1.4843703732398839e-03 0.0000000000000000e+00  1.4956253500534842e-03 1.4818561333821659e-03 0.0000000000000000e+00  1.4950456463698083e-03 1.4793646051121877e-03 0.0000000000000000e+00  1.4944789804861554e-03 1.4768947406772538e-03 0.0000000000000000e+00  1.4939256840182805e-03 1.4744455137074878e-03 0.0000000000000000e+00  1.4933862695595988e-03 1.4720159698986932e-03 0.0000000000000000e+00  1.4928612561876517e-03 1.4696051912415600e-03 0.0000000000000000e+00  1.4923508315512072e-03 1.4672123852606149e-03 0.0000000000000000e+00  1.4918555512216966e-03 1.4648366844630814e-03 0.0000000000000000e+00  1.4913756827793663e-03 1.4624773032666971e-03 0.0000000000000000e+00  1.4909115567078295e-03 1.4601335250973948e-03 0.0000000000000000e+00  1.4904635453507561e-03 1.4578047076236041e-03 0.0000000000000000e+00  1.4900319909293309e-03 1.4554901289324797e-03 0.0000000000000000e+00  1.4896171155219763e-03 1.4531891882289681e-03 0.0000000000000000e+00  1.4892192751887441e-03 1.4509012431707228e-03 0.0000000000000000e+00  1.4888387291748112e-03 1.4486257412336509e-03 0.0000000000000000e+00  1.4884757845155167e-03 1.4463621481605566e-03 0.0000000000000000e+00  1.4881307364089018e-03 1.4441098970587049e-03 0.0000000000000000e+00  1.4878038152388452e-03 1.4418685053005989e-03 0.0000000000000000e+00  1.4874953493764316e-03 1.4396374462298997e-03 0.0000000000000000e+00  1.4872055519001037e-03 1.4374162506629365e-03 0.0000000000000000e+00  1.4869348089181546e-03 1.4352044896726790e-03 0.0000000000000000e+00  1.4866832776942972e-03 1.4330017188974125e-03 0.0000000000000000e+00  1.4864513827729114e-03 1.4308074515364487e-03 0.0000000000000000e+00  1.4862393150006084e-03 1.4286212576834051e-03 0.0000000000000000e+00  1.4860473463164446e-03 1.4264427148209340e-03 0.0000000000000000e+00  1.4858759977705487e-03 1.4242714458978969e-03 0.0000000000000000e+00  1.4857253269809547e-03 1.4221070293904832e-03 0.0000000000000000e+00  1.4855958710824168e-03 1.4199490303978444e-03 0.0000000000000000e+00  1.4854878666645467e-03 1.4177970059627832e-03 0.0000000000000000e+00  1.4854017413475622e-03 1.4156505321289850e-03 0.0000000000000000e+00  1.4853379413724407e-03 1.4135092363413708e-03 0.0000000000000000e+00  1.4852967542038290e-03 1.4113726280522293e-03 0.0000000000000000e+00  1.4852786531704279e-03 1.4092402865851011e-03 0.0000000000000000e+00  1.4852840951775658e-03 1.4071116565039781e-03 0.0000000000000000e+00  1.4853136323446981e-03 1.4049863105428952e-03 0.0000000000000000e+00  1.4853678710310164e-03 1.4028638191751922e-03 0.0000000000000000e+00  1.4854470214563729e-03 1.4007435992298705e-03 0.0000000000000000e+00  1.4855520968609845e-03 1.3986249474541136e-03 0.0000000000000000e+00  1.4856835897345425e-03 1.3965074012294602e-03 0.0000000000000000e+00  1.4858419642281818e-03 1.3943903719515775e-03 0.0000000000000000e+00  1.4860284236940589e-03 1.3922729436964694e-03 0.0000000000000000e+00  1.4862432730485093e-03 1.3901544506720218e-03 0.0000000000000000e+00  1.4864878758191367e-03 1.3880341404626793e-03 0.0000000000000000e+00  1.4867627120554565e-03 1.3859111436588666e-03 0.0000000000000000e+00  1.4870692641254556e-03 1.3837843135797612e-03 0.0000000000000000e+00  1.4874082856185210e-03 1.3816525822590926e-03 0.0000000000000000e+00  1.4877811356964561e-03 1.3795148137534712e-03 0.0000000000000000e+00  1.4881892254049922e-03 1.3773695385778390e-03 0.0000000000000000e+00  1.4886337699135839e-03 1.3752152917793743e-03 0.0000000000000000e+00  1.4891166811821374e-03 1.3730501613290675e-03 0.0000000000000000e+00  1.4896390750871969e-03 1.3708723236419470e-03 0.0000000000000000e+00  1.4902041331021946e-03 1.3686792113782188e-03 0.0000000000000000e+00  1.4908121192962105e-03 1.3664685502787286e-03 0.0000000000000000e+00  1.4914666608698847e-03 1.3642364958884813e-03 0.0000000000000000e+00  1.4921696673661422e-03 1.3619795210543339e-03 0.0000000000000000e+00  1.4929233571785423e-03 1.3596933300276711e-03 0.0000000000000000e+00  1.4937310249574435e-03 1.3573721248168532e-03 0.0000000000000000e+00  1.4945952920019853e-03 1.3550094247849341e-03 0.0000000000000000e+00  1.4955201091548570e-03 1.3525959529821880e-03 0.0000000000000000e+00  1.4965058316275075e-03 1.3501213258453970e-03 0.0000000000000000e+00  1.4975558954038696e-03 1.3475703817045195e-03 0.0000000000000000e+00  1.4986696742144904e-03 1.3449233048415609e-03 0.0000000000000000e+00  1.4998438502559714e-03 1.3421528342328021e-03 0.0000000000000000e+00  1.5010724471799068e-03 1.3392186253644342e-03 0.0000000000000000e+00  1.5023308540134425e-03 1.3360576842782797e-03 0.0000000000000000e+00  1.5035708005041823e-03 1.3325702281658423e-03 0.0000000000000000e+00  1.5046874669140480e-03 1.3285636878585148e-03 0.0000000000000000e+00  1.5054479165579982e-03 1.3236862157051709e-03 0.0000000000000000e+00  1.5052864629083638e-03 1.3171249163947702e-03 0.0000000000000000e+00  1.5030558658887681e-03 1.3074396563060155e-03 0.0000000000000000e+00  1.0910175435535721e-03 8.4897331097096343e-04 0.0000000000000000e+00  1.0430802979061087e-03 8.2945829967977192e-04 0.0000000000000000e+00  9.5090113266667504e-04 7.8134726658919760e-04 0.0000000000000000e+00  6.1901673335185278e-04 5.5483767481808669e-04 0.0000000000000000e+00  3.5948817233364132e-04 3.4381776824407795e-04 0.0000000000000000e+00  0.0000000000000000e+00 0.0000000000000000e+00 0.0000000000000000e+00  0.0000000000000000e+00 0.0000000000000000e+00 0.0000000000000000e+00  0.0000000000000000e+00 0.0000000000000000e+00 0.0000000000000000e+00  0.0000000000000000e+00 0.0000000000000000e+00 0.0000000000000000e+00  0.0000000000000000e+00 0.0000000000000000e+00 0.0000000000000000e+00  0.0000000000000000e+00 0.0000000000000000e+00 0.0000000000000000e+00  0.0000000000000000e+00 0.0000000000000000e+00 0.0000000000000000e+00  0.0000000000000000e+00 0.0000000000000000e+00 0.0000000000000000e+00  1.1349571314524359e-04 1.0270252153522373e-05 0.0000000000000000e+00  2.6035512458236822e-04 4.8911646621188560e-05 0.0000000000000000e+00  5.6355169415131751e-04 1.3090054554706942e-04 0.0000000000000000e+00  7.0554385536469801e-04 1.6876577008737150e-04 0.0000000000000000e+00  8.3081924420691077e-04 2.0492362269253873e-04 0.0000000000000000e+00  1.9089824518642897e-03 2.1510266862304552e-03 0.0000000000000000e+00  1.9569196977724810e-03 2.1705416975299065e-03 0.0000000000000000e+00  2.0490988632149427e-03 2.2186527306445347e-03 0.0000000000000000e+00  2.3809832635902509e-03 2.4451623219032439e-03 0.0000000000000000e+00  2.6405118262764712e-03 2.6561822293230150e-03 0.0000000000000000e+00  3.0000000000000001e-03 3.0000000000000001e-03 0.0000000000000000e+00  3.0000000000000001e-03 3.0000000000000001e-03 0.0000000000000000e+00  3.0000000000000001e-03 3.0000000000000001e-03 0.0000000000000000e+00  3.0000000000000001e-03 3.0000000000000001e-03 0.0000000000000000e+00  3.0000000000000001e-03 3.0000000000000001e-03 0.0000000000000000e+00  3.0000000000000001e-03 3.0000000000000001e-03 0.0000000000000000e+00  3.0000000000000001e-03 3.0000000000000001e-03 0.0000000000000000e+00  3.0000000000000001e-03 3.0000000000000001e-03 0.0000000000000000e+00  2.8865042861081808e-03 2.9897297483340254e-03 0.0000000000000000e+00  2.7396448740498536e-03 2.9510883540793684e-03 0.0000000000000000e+00  2.4364483036033355e-03 2.8690994552884237e-03 0.0000000000000000e+00  2.2944561420791599e-03 2.8312342307491656e-03 0.0000000000000000e+00  2.1691807530029362e-03 2.7950763781125557e-03 0.0000000000000000e+00  2.0647198722121168e-03 2.7055721678905654e-03 0.0000000000000000e+00  2.0157993436157266e-03 2.6201725330863884e-03 0.0000000000000000e+00  1.9683735696238410e-03 2.5389087244347174e-03 0.0000000000000000e+00  1.9268734755561020e-03 2.4676746253461707e-03 0.0000000000000000e+00  1.8925555894389119e-03 2.4080996590619408e-03 0.0000000000000000e+00  1.8650766006880074e-03 2.3598779168886933e-03 0.0000000000000000e+00  1.8436388776831830e-03 2.3218491084029745e-03 0.0000000000000000e+00  1.8131329686283883e-03 2.2670255372608810e-03 0.0000000000000000e+00  1.7992228756674778e-03 2.2417189316082222e-03 0.0000000000000000e+00  1.7854967842897843e-03 2.2165423221368339e-03 0.0000000000000000e+00  1.7719480985500906e-03 2.1914689126632798e-03 0.0000000000000000e+00  1.7585508607413287e-03 2.1664550656713293e-03 0.0000000000000000e+00  1.7452924298874183e-03 2.1414502094875168e-03 0.0000000000000000e+00  1.7321381403419412e-03 2.1163861608332404e-03 0.0000000000000000e+00  1.7190468506838449e-03 2.0911673769787179e-03 0.0000000000000000e+00  1.7059774078603659e-03 2.0656782150509671e-03 0.0000000000000000e+00  1.6928612687155584e-03 2.0397508556678121e-03 0.0000000000000000e+00  1.6795927240625544e-03 2.0131342492171202e-03 0.0000000000000000e+00  1.6660212134800491e-03 1.9854498585812775e-03 0.0000000000000000e+00  1.6518365510584270e-03 1.9559885987423067e-03 0.0000000000000000e+00  1.3361664157203808e-03 1.4332418043428248e-03 0.0000000000000000e+00  1.3208783190349358e-03 1.4032073416287314e-03 0.0000000000000000e+00  1.3073867338918366e-03 1.3756681625586539e-03 0.0000000000000000e+00  1.2949539775182442e-03 1.3496822642114661e-03 0.0000000000000000e+00  1.2832748112825395e-03 1.3247778597678507e-03 0.0000000000000000e+00  1.2721387284506116e-03 1.3006578846392182e-03 0.0000000000000000e+00  1.2614360154510162e-03 1.2771360584884906e-03 0.0000000000000000e+00  1.2510930738489892e-03 1.2540787105846524e-03 0.0000000000000000e+00  1.2410417417653547e-03 1.2313900506561886e-03 0.0000000000000000e+00  1.2312614506222752e-03 1.2090128082764317e-03 0.0000000000000000e+00  1.2217236498697299e-03 1.1869034539144709e-03 0.0000000000000000e+00  1.2124112871385385e-03 1.1650369148399797e-03 0.0000000000000000e+00  1.2033315918355196e-03 1.1434074980861586e-03 0.0000000000000000e+00  1.1028273980454968e-03 8.6149949303592345e-04 0.0000000000000000e+00  1.1115851120005206e-03 8.9478280894329516e-04 0.0000000000000000e+00  1.1257329355342971e-03 9.3991274832915320e-04 0.0000000000000000e+00  1.1420649020363540e-03 9.8686502076331486e-04 0.0000000000000000e+00  1.1580868462600213e-03 1.0301329811364041e-03 0.0000000000000000e+00  1.1724715790024298e-03 1.0673221364591078e-03 0.0000000000000000e+00  1.1846265246299224e-03 1.0978239877339042e-03 0.0000000000000000e+00  1.8971725971279939e-03 2.1385005043052349e-03 0.0000000000000000e+00  1.8884148830092353e-03 2.1052171885801935e-03 0.0000000000000000e+00  1.8742670593356902e-03 2.0600872494396147e-03 0.0000000000000000e+00  1.8579350927630158e-03 2.0131349772574423e-03 0.0000000000000000e+00  1.8419131485226854e-03 1.9698670170980054e-03 0.0000000000000000e+00  1.8275284157901325e-03 1.9326778619381828e-03 0.0000000000000000e+00  1.8153734701802503e-03 1.9021760107831190e-03 0.0000000000000000e+00  1.7966684030093403e-03 1.8565925005902379e-03 0.0000000000000000e+00  1.7875887077248133e-03 1.8349630839053313e-03 0.0000000000000000e+00  1.7782763450133205e-03 1.8130965448970671e-03 0.0000000000000000e+00  1.7687385442815772e-03 1.7909871905990103e-03 0.0000000000000000e+00  1.7589582531603860e-03 1.7686099482811049e-03 0.0000000000000000e+00  1.7489069210997656e-03 1.7459212884127092e-03 0.0000000000000000e+