<?xml version="1.0"?>
<VTKFile type="UnstructuredGrid"  version="0.1"  >
<UnstructuredGrid>
<Piece  NumberOfPoints="24256" NumberOfCells="48358">
<Points>
<DataArray  type="Float64"  NumberOfComponents="3"  format="ascii">0 0 0  50 0 0  100 0 0  100 49.5 0  100 50.5 0  100 100 0  50 100 0  0 100 0  0 50.5 0  0 49.5 0  0 75 0  0 25 0  100 25 0  100 75 0  24.5 49.5 0  24.5 50.5 0  75.5 50.5 0  75.5 49.5 0  80 49.5 0  80 50.5 0  20 50.5 0  20 49.5 0  20 75 0  50 75 0  80 75 0  80 25 0  50 25 0  20 25 0  50 50 0  25 50 0  75 50 0  24.6913417161905 50.46193976625235 0  24.85355339060025 50.3535533905863 0  24.96193976626094 50.19134171616977 0  24.96193976626191 49.80865828383259 0  24.85355339060165 49.6464466094151 0  24.69134171619181 49.5380602337482 0  75.30865828380529 50.4619397662506 0  75.14644660940547 50.35355339059202 0  75.03806023374186 50.1913417161765 0  75.03806023374065 49.80865828382641 0  75.14644660940286 49.6464466094106 0  75.3086582838058 49.53806023374919 0  25.19951614622269 50 0  25.40142063054872 50 0  25.60574210295544 50 0  25.81250948266545 50 0  26.0217520778856 50 0  26.23349951676287 50 0  26.44778179878875 50 0  26.6646292257103 50 0  26.88407252000402 50 0  27.10614273817509 50 0  27.33087139223914 50 0  27.5582902617968 50 0  27.78843154377079 50 0  28.02132779859583 50 0  28.25701212732613 50 0  28.49551779753923 50 0  28.73687860057358 50 0  28.98112872321073 50 0  29.22830275592332 50 0  29.47843570044527 50 0  29.73156297669333 50 0  29.98772042906865 50 0  30.24694433216624 50 0  30.50927139591921 50 0  30.77473877020432 50 0  31.04338404893412 50 0  31.31524527366058 50 0  31.59036093671394 50 0  31.86876998390005 50 0  32.15051184795058 50 0  32.43562649009755 50 0  32.72415415620186 50 0  33.01613584464261 50 0  33.31161281585579 50 0  33.61062692242808 50 0  33.91322051012257 50 0  34.21943640671003 50 0  34.52931807773269 50 0  34.84290928650268 50 0  35.16025460694943 50 0  35.48139871583209 50 0  35.8063872838676 50 0  36.1352662367809 50 0  36.46808207817695 50 0  36.80488218829193 50 0  37.14571406174852 50 0  37.49062618898397 50 0  37.83966709981627 50 0  38.1928863950564 50 0  38.55033394694173 50 0  38.91206068919998 50 0  39.27811755190851 50 0  39.64855635406197 50 0  40.02342992204706 50 0  40.40279094884485 50 0  40.78669330115305 50 0  41.1751912579513 50 0  41.56834005356981 50 0  41.96619511805834 50 0  42.36881293145003 50 0  42.77625048200917 50 0  43.18856530542669 50 0  43.60581617975753 50 0  44.02806183666044 50 0  44.45536217468985 50 0  44.88777770917031 50 0  45.32536960312584 50 0  45.76820003270851 50 0  46.21633143285066 50 0  46.66982755007726 50 0  47.12875237761952 50 0  47.59317096415209 50 0  48.06314909969768 50 0  48.53875333639597 50 0  49.02005100772931 50 0  49.50711024626847 50 0  50.49288975371359 50 0  50.97994899223524 50 0  51.46124666355149 50 0  51.93685090023309 50 0  52.40682903576241 50 0  52.8712476222791 50 0  53.33017244980586 50 0  53.78366856701732 50 0  54.23179996714473 50 0  54.67463039671301 50 0  55.11222229065453 50 0  55.54463782512131 50 0  55.97193816313742 50 0  56.39418382002735 50 0  56.81143469434553 50 0  57.22374951775078 50 0  57.63118706829796 50 0  58.03380488167798 50 0  58.43165994615514 50 0  58.8248087417626 50 0  59.21330669855615 50 0  59.59720905086467 50 0  59.97657007766281 50 0  60.35144364564827 50 0  60.72188244780216 50 0  61.08793931051112 50 0  61.44966605276986 50 0  61.80711360465571 50 0  62.16033289989638 50 0  62.50937381072924 50 0  62.85428593796531 50 0  63.19511781142246 50 0  63.53191792153814 50 0  63.86473376293482 50 0  64.19361271585434 50 0  64.51860128389967 50 0  64.83974539279198 50 0  65.15709071324817 50 0  65.47068192202742 50 0  65.78056359305916 50 0  66.08677948965553 50 0  66.38937307735874 50 0  66.68838718393957 50 0  66.98386415516111 50 0  67.27584584361004 50 0  67.5643735097224 50 0  67.84948815187724 50 0  68.13123001593549 50 0  68.40963906312913 50 0  68.68475472618989 50 0  68.95661595092359 50 0  69.2252612296605 50 0  69.49072860395255 50 0  69.7530556677123 50 0  70.01227957081655 50 0  70.26843702319839 50 0  70.52156429945282 50 0  70.771697243981 50 0  71.01887127669971 50 0  71.26312139934282 50 0  71.504482202383 50 0  71.74298787260182 50 0  71.9786722013377 50 0  72.21156845616824 50 0  72.44170973814758 50 0  72.66912860771049 50 0  72.89385726177966 50 0  73.11592747995573 50 0  73.33537077425433 50 0  73.55221820118066 50 0  73.76650048321122 50 0  73.97824792209306 50 0  74.18749051731768 50 0  74.39425789703208 50 0  74.59857936944304 50 0  74.80048385377326 50 0  0 43.37500000000002 0  0 37.25000000000004 0  0 31.12500000000004 0  0 17.27826487323784 0  0 8.960276504660179 0  9.999999999957065 0 0  19.99999999992002 0 0  29.99999999990366 0 0  39.99999999994531 0 0  59.99999999989675 0 0  69.9999999997935 0 0  79.99999999969025 0 0  89.99999999981904 0 0  100 8.960276504556731 0  100 17.27826487314172 0  100 31.12499999999998 0  100 37.24999999999996 0  100 43.37499999999996 0  100 56.6250000000798 0  100 62.7500000001596 0  100 68.87500000009784 0  100 82.7217351268162 0  100 91.03972349540425 0  90.00000000006384 100 0  80.00000000012767 100 0  70.00000000019152 100 0  60.00000000007827 100 0  40.00000000007105 100 0  30.00000000012907 100 0  20.00000000012907 100 0  10.00000000007105 100 0  0 91.03972349540425 0  0 82.72173512681618 0  0 68.87500000009786 0  0 62.75000000015963 0  0 56.62500000007984 0  6.120412593464062 50.5 0  10.49556498072933 50.5 0  13.62312453054427 50.5 0  15.85884727978738 50.5 0  17.45704437958013 50.5 0  18.5995091469825 50.5 0  19.41619524474999 50.5 0  20.47515120167095 50.5 0  20.92019997326993 50.5 0  21.33705330448883 50.5 0  21.72749758188099 50.5 0  22.09320586309756 50.5 0  22.43574522275861 50.5 0  22.75658349581136 50.5 0  23.05709552442124 50.5 0  23.33856909343812 50.5 0  23.60221031035009 50.5 0  23.8491489196949 50.5 0  24.08044314138694 50.5 0  24.29708401977037 50.5 0  24.29708401977037 49.5 0  24.08044314138694 49.5 0  23.8491489196949 49.5 0  23.6022103103501 49.5 0  23.33856909343813 49.5 0  23.05709552442125 49.5 0  22.75658349581136 49.5 0  22.43574522275861 49.5 0  22.09320586309756 49.5 0  21.72749758188098 49.5 0  21.33705330448883 49.5 0  20.92019997326993 49.5 0  20.47515120167095 49.5 0  6.120412593464062 49.5 0  10.49556498072933 49.5 0  13.62312453054427 49.5 0  15.85884727978738 49.5 0  17.45704437958013 49.5 0  18.5995091469825 49.5 0  19.41619524474999 49.5 0  93.87958740647669 50.5 0  89.50443501919381 50.5 0  86.37687546938463 50.5 0  84.14115272015442 50.5 0  82.54295562037724 50.5 0  81.40049085299049 50.5 0  80.5838047552374 50.5 0  79.52484879832905 50.5 0  79.07980002673007 50.5 0  78.66294669551117 50.5 0  78.27250241811902 50.5 0  77.90679413690243 50.5 0  77.5642547772414 50.5 0  77.24341650418864 50.5 0  76.94290447557876 50.5 0  76.66143090656188 50.5 0  76.39778968964991 50.5 0  76.1508510803051 50.5 0  75.91955685861306 50.5 0  75.70291598022963 50.5 0  75.70291598022963 49.5 0  75.91955685861306 49.5 0  76.1508510803051 49.5 0  76.39778968964991 49.5 0  76.66143090656188 49.5 0  76.94290447557876 49.5 0  77.24341650418864 49.5 0  77.56425477724139 49.5 0  77.90679413690243 49.5 0  78.27250241811902 49.5 0  78.66294669551118 49.5 0  79.07980002673007 49.5 0  79.52484879832905 49.5 0  80.5838047552374 49.5 0  81.40049085299049 49.5 0  82.54295562037723 49.5 0  84.14115272015439 49.5 0  86.3768754693846 49.5 0  89.50443501919378 49.5 0  93.87958740647666 49.5 0  50 92.72111048148359 0  50 87.44430513406535 0  50 83.61890508869973 0  50 80.84569537599788 0  50 78.83526725030589 0  50 77.37781470319995 0  50 76.32123989355226 0  50 75.55527989155394 0  50 74.49999999999723 0  50 73.99999999999444 0  50 73.49999999999167 0  50 72.9999999999889 0  50 72.49999999998612 0  50 71.99999999998334 0  50 71.49999999998057 0  50 70.9999999999778 0  50 70.49999999997502 0  50 69.99999999997225 0  50 69.49999999996948 0  50 68.99999999996669 0  50 68.49999999996392 0  50 67.99999999996115 0  50 67.49999999995836 0  50 66.99999999995559 0  50 66.49999999995282 0  50 65.99999999995003 0  50 65.49999999994726 0  50 64.99999999994449 0  50 64.49999999994171 0  50 63.99999999993982 0  50 63.49999999994937 0  50 62.99999999996081 0  50 62.49999999997224 0  50 61.99999999998368 0  50 61.49999999999511 0  50 61.00000000000655 0  50 60.50000000001798 0  50 60.00000000002942 0  50 59.50000000004086 0  50 59.00000000004974 0  50 58.50000000004718 0  50 58.00000000004441 0  50 57.50000000004164 0  50 57.00000000003886 0  50 56.50000000003608 0  50 56.00000000003331 0  50 55.50000000003053 0  50 55.00000000002775 0  50 54.50000000002498 0  50 54.0000000000222 0  50 53.50000000001943 0  50 53.00000000001666 0  50 52.50000000001388 0  50 52.0000000000111 0  50 51.50000000000833 0  50 51.00000000000556 0  50 50.50000000000278 0  50 49.50000000000319 0  50 49.00000000000639 0  50 48.50000000000958 0  50 48.00000000001277 0  50 47.50000000001596 0  50 47.00000000001916 0  50 46.50000000002235 0  50 46.00000000002554 0  50 45.50000000002873 0  50 45.00000000003192 0  50 44.50000000003512 0  50 44.00000000003831 0  50 43.5000000000415 0  50 43.00000000004469 0  50 42.50000000004789 0  50 42.00000000005108 0  50 41.50000000005427 0  50 41.00000000005746 0  50 40.50000000006066 0  50 40.00000000006385 0  50 39.50000000006704 0  50 39.00000000007024 0  50 38.50000000007343 0  50 38.00000000007662 0  50 37.50000000007981 0  50 37.00000000008301 0  50 36.5000000000862 0  50 36.00000000008939 0  50 35.50000000009258 0  50 35.00000000009578 0  50 34.50000000009896 0  50 34.0000000000996 0  50 33.50000000008881 0  50 33.00000000007779 0  50 32.50000000006678 0  50 32.00000000005598 0  50 31.5000000000509 0  50 31.00000000004698 0  50 30.50000000004307 0  50 30.00000000003915 0  50 29.50000000003524 0  50 29.00000000003132 0  50 28.50000000002741 0  50 28.00000000002349 0  50 27.50000000001958 0  50 27.0
[...]
<PointData  Scalars="Micro-rotation"> 
<DataArray  type="Float64"  Name="Micro-rotation"  format="ascii">0.0000000000000000e+00  0.0000000000000000e+00  0.0000000000000000e+00  0.0000000000000000e+00  0.0000000000000000e+00  0.0000000000000000e+00  0.0000000000000000e+00  0.0000000000000000e+00  0.0000000000000000e+00  0.0000000000000000e+00  0.0000000000000000e+00  0.0000000000000000e+00  0.0000000000000000e+00  0.0000000000000000e+00  -5.7199939114242567e-06  -7.2968387658705805e-06  -5.7199939267004866e-06  -7.2968387749363869e-06  -6.9233062000809483e-06  -3.8401975094882097e-06  -6.9233061993908722e-06  -3.8401974916613146e-06  -5.0055734215278117e-06  -6.3150727782477394e-06  -3.5702700950194449e-06  -5.0055735338749296e-06  -6.3150704456249707e-06  -3.5702657972927035e-06  -8.5418028956907741e-06  -6.7740028163319140e-06  -6.7740028303830556e-06  -7.2360399939606128e-06  -7.1355764807270128e-06  -6.9892930954444037e-06  -6.4894044159965873e-06  -6.1835328144466015e-06  -5.9171786854713869e-06  -5.9171787013421416e-06  -6.1835328303787237e-06  -6.4894044312870965e-06  -6.9892931081284925e-06  -7.1355764921091916e-06  -7.2360400041022611e-06  -6.7792637275712423e-06  -6.7930941428246818e-06  -6.8135175444233201e-06  -6.8386475281583711e-06  -6.8673369017640773e-06  -6.8978815493305457e-06  -6.9297602989275052e-06  -6.9623579692637075e-06  -6.9954934175978879e-06  -7.0287726298834580e-06  -7.0622700236788778e-06  -7.0958296129047177e-06  -7.1293964735693757e-06  -7.1628922556136474e-06  -7.1963737957119839e-06  -7.2296778596692558e-06  -7.2629034376077885e-06  -7.2959365659493785e-06  -7.3288159937050422e-06  -7.3615347410097708e-06  -7.3940151256103537e-06  -7.4262976834228013e-06  -7.4583495758308277e-06  -7.4901754858088807e-06  -7.5217623392501979e-06  -7.5531032003479945e-06  -7.5841587521425036e-06  -7.6149642901383618e-06  -7.6455029013077780e-06  -7.6758002594338982e-06  -7.7056389948591042e-06  -7.7352813821409470e-06  -7.7646271976143967e-06  -7.7935863203944062e-06  -7.8222120933675801e-06  -7.8505421089253423e-06  -7.8785329354959181e-06  -7.9060268477690372e-06  -7.9332086762161588e-06  -7.9600292579402292e-06  -7.9864647301698770e-06  -8.0124931927537016e-06  -8.0379676073809038e-06  -8.0631495227088901e-06  -8.0877696912076969e-06  -8.1121348494228112e-06  -8.1358283166376963e-06  -8.1590980815544894e-06  -8.1818320061299582e-06  -8.2040731208892735e-06  -8.2257871977635376e-06  -8.2470532487837571e-06  -8.2675656516004467e-06  -8.2876052420191262e-06  -8.3070410901023326e-06  -8.3258588593868342e-06  -8.3441360923813490e-06  -8.3616238899463851e-06  -8.3785336387618263e-06  -8.3947215758302044e-06  -8.4102200435129051e-06  -8.4250877193539378e-06  -8.4389922365289426e-06  -8.4522128781501896e-06  -8.4646886124469346e-06  -8.4763300142014569e-06  -8.4870581779205874e-06  -8.4969672382772458e-06  -8.5060001158178315e-06  -8.5141415077487291e-06  -8.5211378152715072e-06  -8.5272950398897767e-06  -8.5323858636844212e-06  -8.5364123891089429e-06  -8.5393082235820256e-06  -8.5410487253093488e-06  -8.5410487269674107e-06  -8.5393082268737853e-06  -8.5364123940079003e-06  -8.5323858701601778e-06  -8.5272950479099336e-06  -8.5211378248007634e-06  -8.5141415187468573e-06  -8.5060001282460512e-06  -8.4969672520932832e-06  -8.4870581930786198e-06  -8.4763300306568930e-06  -8.4646886301525236e-06  -8.4522128970581723e-06  -8.4389922565889732e-06  -8.4250877405142507e-06  -8.4102200657255665e-06  -8.3947215990431203e-06  -8.3785336629211067e-06  -8.3616239150025158e-06  -8.3441361182781210e-06  -8.3258588860755328e-06  -8.3070411175278263e-06  -8.2876052701306014e-06  -8.2675656803457922e-06  -8.2470532781085493e-06  -8.2257872276248422e-06  -8.2040731512314319e-06  -8.1818320369059923e-06  -8.1590981127135654e-06  -8.1358283481330037e-06  -8.1121348812059624e-06  -8.0877697232361471e-06  -8.0631495549334082e-06  -8.0379676397622941e-06  -8.0124932252425058e-06  -7.9864647627268470e-06  -7.9600292905238096e-06  -7.9332087087865103e-06  -7.9060268802866845e-06  -7.8785329679213405e-06  -7.8505421412241570e-06  -7.8222121255031122e-06  -7.7935863523302538e-06  -7.7646272293166393e-06  -7.7352814135799335e-06  -7.7056390260021628e-06  -7.6758002902470442e-06  -7.6455029317659783e-06  -7.6149643202115669e-06  -7.5841587818039160e-06  -7.5531032295698587e-06  -7.5217623680091128e-06  -7.4901755140802866e-06  -7.4583496035924842e-06  -7.4262977106529827e-06  -7.3940151522895029e-06  -7.3615347671189092e-06  -7.3288160192275874e-06  -7.2959365908688202e-06  -7.2629034619104767e-06  -7.2296778833434726e-06  -7.1963738187467154e-06  -7.1628922780005919e-06  -7.1293964953011740e-06  -7.0958296339773737e-06  -7.0622700440902932e-06  -7.0287726496338836e-06  -6.9954934366899089e-06  -6.9623579877034844e-06  -6.9297603167231922e-06  -6.8978815664939150e-06  -6.8673369183102239e-06  -6.8386475441050852e-06  -6.8135175597919325e-06  -6.7930941576485266e-06  -6.7792637419119141e-06  0.0000000000000000e+00  0.0000000000000000e+00  0.0000000000000000e+00  0.0000000000000000e+00  0.0000000000000000e+00  0.0000000000000000e+00  0.0000000000000000e+00  0.0000000000000000e+00  0.0000000000000000e+00  0.0000000000000000e+00  0.0000000000000000e+00  0.0000000000000000e+00  0.0000000000000000e+00  0.0000000000000000e+00  0.0000000000000000e+00  0.0000000000000000e+00  0.0000000000000000e+00  0.0000000000000000e+00  0.0000000000000000e+00  0.0000000000000000e+00  0.0000000000000000e+00  0.0000000000000000e+00  0.0000000000000000e+00  0.0000000000000000e+00  0.0000000000000000e+00  0.0000000000000000e+00  0.0000000000000000e+00  0.0000000000000000e+00  0.0000000000000000e+00  0.0000000000000000e+00  0.0000000000000000e+00  0.0000000000000000e+00  0.0000000000000000e+00  0.0000000000000000e+00  0.0000000000000000e+00  0.0000000000000000e+00  -2.5817239574565154e-06  -4.2186660463348362e-06  -5.2570923106189442e-06  -5.9230785426805465e-06  -6.3485488554292265e-06  -6.6236421328954201e-06  -6.8043193301474437e-06  -7.0128425074602762e-06  -7.0905066296083741e-06  -7.1572035858589258e-06  -7.2136026953469540e-06  -7.2603095507301338e-06  -7.2980592007258317e-06  -7.3272592867787638e-06  -7.3483215107000032e-06  -7.3617415927393889e-06  -7.3673047223312032e-06  -7.3648420809525508e-06  -7.3538665760260817e-06  -7.3333170921138153e-06  -5.5602221970227264e-06  -5.4216178849623319e-06  -5.2885890018920204e-06  -5.1586126204825620e-06  -5.0302518134161705e-06  -4.9025134242904438e-06  -4.7742689412044594e-06  -4.6453681999241849e-06  -4.5155155807662459e-06  -4.3841223655236898e-06  -4.2512301080995632e-06  -4.1164597829523085e-06  -3.9794807142933274e-06  -1.0639312414349307e-06  -1.8197854313109125e-06  -2.3897828390457123e-06  -2.8340088147727294e-06  -3.1881279245407629e-06  -3.4653383873471439e-06  -3.6781525131261192e-06  -1.0639312476272580e-06  -1.8197854539933049e-06  -2.3897828763132503e-06  -2.8340088543853026e-06  -3.1881279589675818e-06  -3.4653384145331110e-06  -3.6781525346601019e-06  -3.9794807295041062e-06  -4.1164597962064488e-06  -4.2512301199671275e-06  -4.3841223765278370e-06  -4.5155155913820802e-06  -4.6453682104649162e-06  -4.7742689519707479e-06  -4.9025134354846102e-06  -5.0302518251619103e-06  -5.1586126328739416e-06  -5.2885890149836524e-06  -5.4216178987763940e-06  -5.5602222115673485e-06  -7.3333171002800837e-06  -7.3538665834281061e-06  -7.3648420876420816e-06  -7.3673047283460163e-06  -7.3617415981109381e-06  -7.3483215154556299e-06  -7.3272592909375016e-06  -7.2980592043112290e-06  -7.2603095537704163e-06  -7.2136026978596129e-06  -7.1572035878739290e-06  -7.0905066311523983e-06  -7.0128425085597732e-06  -6.8043193304113123e-06  -6.6236421326885687e-06  -6.3485488547470346e-06  -5.9230785416228886e-06  -5.2570923093765392e-06  -4.2186660451994309e-06  -2.5817239567110311e-06  -2.3120415374802675e-06  -3.7278611411178560e-06  -4.6316914393353548e-06  -5.2231360204770064e-06  -5.6230139009847091e-06  -5.8961889474541175e-06  -6.0866719197709846e-06  -6.2202379176608868e-06  -6.3987564641559880e-06  -6.4810574450366615e-06  -6.5618491545196850e-06  -6.6411370716760214e-06  -6.7189297248360342e-06  -6.7951603456491849e-06  -6.8699117669202570e-06  -6.9431507980270529e-06  -7.0149898785968352e-06  -7.0851105551339273e-06  -7.1537751297883047e-06  -7.2209588725810204e-06  -7.2866300008038506e-06  -7.3508158767745917e-06  -7.4133544856841434e-06  -7.4743580449886965e-06  -7.5339782502200683e-06  -7.5917751000662699e-06  -7.6481236254670295e-06  -7.7029137595892749e-06  -7.7561827529437849e-06  -7.8076196636367175e-06  -7.8575531421055560e-06  -7.9059269783885359e-06  -7.9526016665591677e-06  -7.9976943129450247e-06  -8.0408556415665743e-06  -8.0825293352579363e-06  -8.1224813343110618e-06  -8.1608149206115906e-06  -8.1971647296931121e-06  -8.2319345824870645e-06  -8.2649297470353059e-06  -8.2960895622889425e-06  -8.3255547014704534e-06  -8.3530588122752177e-06  -8.3787887308415947e-06  -8.4026948716854942e-06  -8.4247764793094450e-06  -8.4450722461966922e-06  -8.4633831955757667e-06  -8.4794599866674012e-06  -8.4942143837782675e-06  -8.5067234159199677e-06  -8.5174132349265392e-06  -8.5261761303077900e-06  -8.5330807942647665e-06  -8.5376554716519616e-06  -8.5407147948347920e-06  -8.5407147923704597e-06  -8.5376554667248015e-06  -8.5330807868780700e-06  -8.5261761204668477e-06  -8.5174132226370313e-06  -8.5067234011902443e-06  -8.4942143666194366e-06  -8.4794599670906656e-06  -8.4633831735952549e-06  -8.4450722218304258e-06  -8.4247764525741426e-06  -8.4026948426034819e-06  -8.3787886994377245e-06  -8.3530587785763660e-06  -8.3255546655075385e-06  -8.2960895240949852e-06  -8.2649297066519361e-06  -8.2319345399542656e-06  -8.1971646850578080e-06  -8.1608148739304834e-06  -8.1224812856346347e-06  -8.0825292846526711e-06  -8.0408555891035880e-06  -7.9976942587011652e-06  -7.9526016106175425e-06  -7.9059269208417951e-06  -7.8575530830473476e-06  -7.8076196031797934e-06  -7.7561826912180732e-06  -7.7029136967058098e-06  -7.6481235615665591e-06  -7.5917750352990950e-06  -7.5339781847457488e-06  -7.4743579789544187e-06  -7.4133544192852951e-06  -7.3508158101823590e-06  -7.2866299342196214e-06  -7.2209588061753145e-06  -7.1537750637750545e-06  -7.0851104897016952e-06  -7.0149898139220733e-06  -6.9431507342215212e-06  -6.8699117039936305e-06  -6.7951602833144946e-06  -6.7189296621031072e-06  -6.6411370059391801e-06  -6.5618490787403195e-06  -6.4810573560237521e-06  -6.3987592731572580e-06  -6.2202376374825922e-06  -6.0866718743270156e-06  -5.8961889204326170e-06  -5.6230138888505022e-06  -5.2231360280773196e-06  -4.6316914720504260e-06  -3.7278611960178599e-06  -2.3120415890631807e-06  -3.8408053910458240e-06  -3.8411136201907072e-06  -3.8413933126502474e-06  -3.8418466265868403e-06  -3.8419506513109259e-06  -3.8421943584132533e-06  -3.8420155591671628e-06  -3.8420074287861000e-06  -3.8418114901842815e-06  -3.8418630764757512e-06  -3.8415432477707791e-06  -3.8416800651039276e-06  -3.8415734593337489e-06  -3.8416183395404929e-06  -3.8416089815618345e-06  -3.8413270669361828e-06  -3.8414051216832951e-06  -3.8410718577527830e-06  -3.8407985290800715e-06  -3.8405206984105478e-06  -3.8398808514248950e-06  -3.8390947260305236e-06  -3.8379163518005569e-06  -3.8363835070041503e-06  -3.8344556373832420e-06  -3.8322221023328105e-06  -3.8295285990569778e-06  -3.8261847807656256e-06  -3.8224046243538411e-06  -3.8180440209199198e-06  -3.8129702533538367e-06  -3.8073197866448529e-06  -3.8008807619315710e-06  -3.7937998467566703e-06  -3.7858207492729577e-06  -3.7769747840877933e-06  -3.7674074726785578e-06  -3.7568091144252703e-06  -3.7454308328174446e-06  -3.7329097755498394e-06  -3.7194320203672108e-06  -3.7047860429267731e-06  -3.6892102749652893e-06  -3.6723288931514318e-06  -3.6544569629164980e-06  -3.6353356879073685e-06  -3.6148837283515824e-06  -3.5931545232253227e-06  -3.6364532686020297e-06  -3.7022169652332707e-06  -3.7675398310162263e-06  -3.8321344438196439e-06  -3.8963738495248385e-06  -3.9602289404784433e-06  -4.0235162667544167e-06  -4.0863438324509645e-06  -4.1485757807502791e-06  -4.2105796249764094e-06  -4.2718094043802747e-06  -4.3327162131910503e-06  -4.3927882950690570e-06  -4.4525948300685746e-06  -4.5117886430836743e-06  -4.5702679445461692e-06  -4.6283067180327025e-06  -4.6857292528305485e-06  -4.7422069541332405e-06  -4.7983192753275714e-06  -4.8535952890280221e-06  -4.9081401644533058e-06  -4.9620307786997878e-06  -5.0150619406163521e-06  -5.0674838156574954e-06  -5.1189342202871368e-06  -5.1696671517268963e-06  -5.2194199597067139e-06  -5.2685693777165662e-06  -5.3166138036073034e-06  -5.3639637435617896e-06  -5.4104221176133116e-06  -5.4557580680804438e-06  -5.5004289093926841e-06  -5.5441450009028081e-06  -5.5869463548061365e-06  -5.6286420204751916e-06  -5.6694965678905099e-06  -5.7092409257061108e-06  -5.7481651228828936e-06  -5.7859732816765372e-06  -5.8228443593767705e-06  -5.8588550846114537e-06  -5.8937009666177093e-06  -5.9276239992037497e-06  -5.9604977704843022e-06  -5.9924203450758831e-06  -6.0232594052726756e-06  -6.0533157326090006e-06  -6.0821087136189366e-06  -6.1099791155034693e-06  -6.1367537349700039e-06  -6.1627409171518785e-06  -6.1875445074577648e-06  -6.2113439405805012e-06  -6.2341561737535304e-06  -6.2559022108825709e-06  -6.2767392390052424e-06  -6.2962232290917356e-06  -6.3325269197029525e-06  -6.3492225211826288e-06  -6.3647049769431751e-06  -6.3790805486379503e-06  -6.3924904490867732e-06  -6.4047613823682374e-06  -6.4160535085157700e-06  -6.4260945415420975e-06  -6.4353196229096442e-06  -6.4432310293475421e-06  -6.4501601920583607e-06  -6.4557509257248576e-06  -6.4604352296261198e-06  -6.4638723731997826e-06  -6.4662377324629756e-06  -6.4673733461139028e-06  -6.4672881262971309e-06  -6.4660052851238413e-06  -6.4635838143056419e-06  -6.4599272568227862e-06  -6.4549552313282981e-06  -6.4487198029944254e-06  -6.4411930501862348e-06  -6.4323252092901745e-06  -6.4219675207482211e-06  -6.4104117871865998e-06  -6.3974180243125383e-06  -6.3830339212877255e-06  -6.3671879931201725e-06  -6.3499190809843079e-06  -6.3311870164662636e-06  -6.3107568677576525e-06  -6.2890620684181909e-06  -6.2655542106574800e-06  -6.2405467432982696e-06  -6.2137619514452863e-06  -6.1853991571122237e-06  -6.1553511543615044e-06  -6.1235499463279267e-06  -6.0900181730932116e-06  -6.0545530143949635e-06  -6.0174890730963187e-06  -5.9783281141720961e-06  -5.9373458831385996e-06  -5.8945312668170274e-06  -5.8497430535815511e-06  -5.8029846053702408e-06  -5.7543442147376867e-06  -5.7035423854713633e-06  -5.6508531479498686e-06  -5.5958252648564655e-06  -5.5389584652429733e-06  -5.4799019764084497e-06  -5.4187190284602501e-06  -5.3553018819346413e-06  -5.2897876004198883e-06  -5.2221312132450221e-06  -5.1521098349796691e-06  -5.0799247953097461e-06  -5.0782953883638091e-06  -5.1499171609967215e-06  -5.2204482636109050e-06  -5.2898102998024290e-06  -5.3580305089627371e-06  -5.4251930424226052e-06  -5.4910359581468160e-06  -5.5559942230914208e-06  -5.6194809338495557e-06  -5.6819403661701637e-06  -5.7430366247259900e-06  -5.8029611713030252e-06  -5.8616071850629541e-06  -5.9190840963811408e-06  -5.9753818981353328e-06  -6.0300909859566711e-06  -6.0836763517980043e-06  -6.1357909217912035e-06  -6.1866797633833408e-06  -6.2359686567376953e-06  -6.2838942027420500e-06  -6.3305774944648397e-06  -6.3756245576739507e-06  -6.4192484919173453e-06  -6.4609678621867150e-06  -6.5015399384271589e-06  -6.5403431980861162e-06  -6.5775331025912622e-06  -6.6127813211092867e-06  -6.6463462289197895e-06  -6.6781810275500799e-06  -6.7078987085252237e-06  -6.7359415748591341e-06  -6.7620045728550220e-06  -6.7860327738987444e-06  -6.8082904109108377e-06  -6.8281660491319543e-06  -6.8465076321405738e-06  -6.8621981747039357e-06  -6.8760389316213603e-06  -6.8880905642204160e-06  -6.8978442230392721e-06  -6.9057270104323791e-06  -6.9119898247811122e-06  -6.9165956447459013e-06  -6.9198130130598394e-06  -6.9216477150308027e-06  -6.9225979543411082e-06  -3.8408054086600045e-06  -3.8411136370826363e-06  -3.8413933282923802e-06  -3.8418466404072229e-06  -3.8419506623234063e-06  -3.8421943657537789e-06  -3.8420155610171505e-06  -3.8420074233327494e-06  -3.8418114733276948e-06  -3.8418630441314534e-06  -3.8415431883774751e-06  -3.8416799653561630e-06  -3.8415732846587797e-06  -3.8416180128937268e-06  -3.8416082858675871e-06  -3.8413250407469341e-06  -3.8413962182830469e-06  -3.8410844642477452e-06  -3.8407998778983996e-06  -3.8405209684839444e-06  -3.8398808583588210e-06  -3.8390947248226241e-06  -3.8379163677714504e-06  -3.8363835448367735e-06  -3.8344556966544563e-06  -3.8322221818715802e-06  -3.8295286988713776e-06  -3.8261849011254905e-06  -3.8224047675149648e-06  -3.8180441897356606e-06  -3.8129704516874818e-06  -3.8073200196620094e-06  -3.8008810363858918e-06  -3.7938001712199765e-06  -3.7858211340785327e-06  -3.7769752435921477e-06  -3.7674080229172192e-06  -3.7568097786830667e-06  -3.7454316339706892e-06  -3.7329107488958029e-06  -3.7194332053809162e-06  -3.7047874856388067e-06  -3.6892120195353264e-06  -3.6723310118775176e-06  -3.6544594812603146e-06  -3.6353386536048473e-06  -3.6148871944225752e-06  -3.5931584682595515e-06  -3.6364601504545589e-06  -3.7022276389772969e-06  -3.7675623645515980e-06  -3.8321249581514887e-06  -3.8963834698432380e-06  -3.9602885563989580e-06  -4.0235497336314499e-06  -4.0862768019892720e-06  -4.1485620455847846e-06  -4.2105621336332831e-06  -4.2717956196474980e-06  -4.3327052468776564e-06  -4.3927829331181640e-06  -4.4525938608840149e-06  -4.5117934677169091e-06  -4.5702623924520878e-06  -4.6283094577776204e-06  -4.6857328118574265e-06  -4.7422120966255050e-06  -4.7983236304411990e-06  -4.8535983971002417e-06  -4.9081424380368413e-06  -4.9620325427137775e-06  -5.0150633671797127e-06  -5.0674850100278460e-06  -5.1189352399020840e-06  -5.1696680365874651e-06  -5.2194207345659362e-06  -5.2685700613699497e-06  -5.3166144100838025e-06  -5.3639642835965415e-06  -5.4104226000487126e-06  -5.4557585001524466e-06  -5.5004292972469708e-06  -5.5441453498341962e-06  -5.5869466697893361e-06  -5.6286423052410717e-06  -5.6694968257072568e-06  -5.7092411595998749e-06  -5.7481653354212104e-06  -5.7859734751045948e-06  -5.8228445356724009e-06  -5.8588552455812773e-06  -5.8937011139131474e-06  -5.9276241341205433e-06  -5.9604978942684604e-06  -5.9924204588511071e-06  -6.0232595099250879e-06  -6.0533158290026663e-06  -6.0821088024391240e-06  -6.1099791973664745e-06  -6.1367538104829318e-06  -6.1627409867991143e-06  -6.1875445715259571e-06  -6.2113439986474854e-06  -6.2341562266379376e-06  -6.2559022482267797e-06  -6.2767392393692980e-06  -6.2962205926679220e-06  -6.3325273315792910e-06  -6.3492226277371407e-06  -6.3647050370563020e-06  -6.3790805901578384e-06  -6.3924904848940958e-06  -6.4047614140427210e-06  -6.4160535376433603e-06  -6.4260945686876450e-06  -6.4353196483358487e-06  -6.4432310531608942e-06  -6.4501602144707508e-06  -6.4557509468821347e-06  -6.4604352496262888e-06  -6.4638723921263933e-06  -6.4662377503978022e-06  -6.4673733631276853e-06  -6.4672881424672025e-06  -6.4660053004781558e-06  -6.4635838289026123e-06  -6.4599272707122461e-06  -6.4549552445079037e-06  -6.4487198155203681e-06  -6.4411930619799675e-06  -6.4323252203618709e-06  -6.4219675309925289e-06  -6.4104117963487502e-06  -6.3974180321125505e-06  -6.3830339276458919e-06  -6.3671879969508231e-06  -6.3499190809415404e-06  -6.3311870110965914e-06  -6.3107568532858269e-06  -6.2890620394626948e-06  -6.2655541581859175e-06  -6.2405466497296798e-06  -6.2137617861926710e-06  -6.1853988604659848e-06  -6.1553506101056984e-06  -6.1235489217560182e-06  -6.0900163263457388e-06  -6.0545505474938751e-06  -6.0174873245219033e-06  -5.9783310379840361e-06  -5.9373542975405644e-06  -5.8945321250717585e-06  -5.8497419314724663e-06  -5.8029833264061032e-06  -5.7543443561862470e-06  -5.7035429901153430e-06  -5.6508536779860996e-06  -5.5958254822519505e-06  -5.5389584005026960e