<?xml version="1.0"?>
<VTKFile type="UnstructuredGrid"  version="0.1"  >
<UnstructuredGrid>
<Piece  NumberOfPoints="24256" NumberOfCells="48358">
<Points>
<DataArray  type="Float64"  NumberOfComponents="3"  format="ascii">0 0 0  50 0 0  100 0 0  100 49.5 0  100 50.5 0  100 100 0  50 100 0  0 100 0  0 50.5 0  0 49.5 0  0 75 0  0 25 0  100 25 0  100 75 0  24.5 49.5 0  24.5 50.5 0  75.5 50.5 0  75.5 49.5 0  80 49.5 0  80 50.5 0  20 50.5 0  20 49.5 0  20 75 0  50 75 0  80 75 0  80 25 0  50 25 0  20 25 0  50 50 0  25 50 0  75 50 0  24.6913417161905 50.46193976625235 0  24.85355339060025 50.3535533905863 0  24.96193976626094 50.19134171616977 0  24.96193976626191 49.80865828383259 0  24.85355339060165 49.6464466094151 0  24.69134171619181 49.5380602337482 0  75.30865828380529 50.4619397662506 0  75.14644660940547 50.35355339059202 0  75.03806023374186 50.1913417161765 0  75.03806023374065 49.80865828382641 0  75.14644660940286 49.6464466094106 0  75.3086582838058 49.53806023374919 0  25.19951614622269 50 0  25.40142063054872 50 0  25.60574210295544 50 0  25.81250948266545 50 0  26.0217520778856 50 0  26.23349951676287 50 0  26.44778179878875 50 0  26.6646292257103 50 0  26.88407252000402 50 0  27.10614273817509 50 0  27.33087139223914 50 0  27.5582902617968 50 0  27.78843154377079 50 0  28.02132779859583 50 0  28.25701212732613 50 0  28.49551779753923 50 0  28.73687860057358 50 0  28.98112872321073 50 0  29.22830275592332 50 0  29.47843570044527 50 0  29.73156297669333 50 0  29.98772042906865 50 0  30.24694433216624 50 0  30.50927139591921 50 0  30.77473877020432 50 0  31.04338404893412 50 0  31.31524527366058 50 0  31.59036093671394 50 0  31.86876998390005 50 0  32.15051184795058 50 0  32.43562649009755 50 0  32.72415415620186 50 0  33.01613584464261 50 0  33.31161281585579 50 0  33.61062692242808 50 0  33.91322051012257 50 0  34.21943640671003 50 0  34.52931807773269 50 0  34.84290928650268 50 0  35.16025460694943 50 0  35.48139871583209 50 0  35.8063872838676 50 0  36.1352662367809 50 0  36.46808207817695 50 0  36.80488218829193 50 0  37.14571406174852 50 0  37.49062618898397 50 0  37.83966709981627 50 0  38.1928863950564 50 0  38.55033394694173 50 0  38.91206068919998 50 0  39.27811755190851 50 0  39.64855635406197 50 0  40.02342992204706 50 0  40.40279094884485 50 0  40.78669330115305 50 0  41.1751912579513 50 0  41.56834005356981 50 0  41.96619511805834 50 0  42.36881293145003 50 0  42.77625048200917 50 0  43.18856530542669 50 0  43.60581617975753 50 0  44.02806183666044 50 0  44.45536217468985 50 0  44.88777770917031 50 0  45.32536960312584 50 0  45.76820003270851 50 0  46.21633143285066 50 0  46.66982755007726 50 0  47.12875237761952 50 0  47.59317096415209 50 0  48.06314909969768 50 0  48.53875333639597 50 0  49.02005100772931 50 0  49.50711024626847 50 0  50.49288975371359 50 0  50.97994899223524 50 0  51.46124666355149 50 0  51.93685090023309 50 0  52.40682903576241 50 0  52.8712476222791 50 0  53.33017244980586 50 0  53.78366856701732 50 0  54.23179996714473 50 0  54.67463039671301 50 0  55.11222229065453 50 0  55.54463782512131 50 0  55.97193816313742 50 0  56.39418382002735 50 0  56.81143469434553 50 0  57.22374951775078 50 0  57.63118706829796 50 0  58.03380488167798 50 0  58.43165994615514 50 0  58.8248087417626 50 0  59.21330669855615 50 0  59.59720905086467 50 0  59.97657007766281 50 0  60.35144364564827 50 0  60.72188244780216 50 0  61.08793931051112 50 0  61.44966605276986 50 0  61.80711360465571 50 0  62.16033289989638 50 0  62.50937381072924 50 0  62.85428593796531 50 0  63.19511781142246 50 0  63.53191792153814 50 0  63.86473376293482 50 0  64.19361271585434 50 0  64.51860128389967 50 0  64.83974539279198 50 0  65.15709071324817 50 0  65.47068192202742 50 0  65.78056359305916 50 0  66.08677948965553 50 0  66.38937307735874 50 0  66.68838718393957 50 0  66.98386415516111 50 0  67.27584584361004 50 0  67.5643735097224 50 0  67.84948815187724 50 0  68.13123001593549 50 0  68.40963906312913 50 0  68.68475472618989 50 0  68.95661595092359 50 0  69.2252612296605 50 0  69.49072860395255 50 0  69.7530556677123 50 0  70.01227957081655 50 0  70.26843702319839 50 0  70.52156429945282 50 0  70.771697243981 50 0  71.01887127669971 50 0  71.26312139934282 50 0  71.504482202383 50 0  71.74298787260182 50 0  71.9786722013377 50 0  72.21156845616824 50 0  72.44170973814758 50 0  72.66912860771049 50 0  72.89385726177966 50 0  73.11592747995573 50 0  73.33537077425433 50 0  73.55221820118066 50 0  73.76650048321122 50 0  73.97824792209306 50 0  74.18749051731768 50 0  74.39425789703208 50 0  74.59857936944304 50 0  74.80048385377326 50 0  0 43.37500000000002 0  0 37.25000000000004 0  0 31.12500000000004 0  0 17.27826487323784 0  0 8.960276504660179 0  9.999999999957065 0 0  19.99999999992002 0 0  29.99999999990366 0 0  39.99999999994531 0 0  59.99999999989675 0 0  69.9999999997935 0 0  79.99999999969025 0 0  89.99999999981904 0 0  100 8.960276504556731 0  100 17.27826487314172 0  100 31.12499999999998 0  100 37.24999999999996 0  100 43.37499999999996 0  100 56.6250000000798 0  100 62.7500000001596 0  100 68.87500000009784 0  100 82.7217351268162 0  100 91.03972349540425 0  90.00000000006384 100 0  80.00000000012767 100 0  70.00000000019152 100 0  60.00000000007827 100 0  40.00000000007105 100 0  30.00000000012907 100 0  20.00000000012907 100 0  10.00000000007105 100 0  0 91.03972349540425 0  0 82.72173512681618 0  0 68.87500000009786 0  0 62.75000000015963 0  0 56.62500000007984 0  6.120412593464062 50.5 0  10.49556498072933 50.5 0  13.62312453054427 50.5 0  15.85884727978738 50.5 0  17.45704437958013 50.5 0  18.5995091469825 50.5 0  19.41619524474999 50.5 0  20.47515120167095 50.5 0  20.92019997326993 50.5 0  21.33705330448883 50.5 0  21.72749758188099 50.5 0  22.09320586309756 50.5 0  22.43574522275861 50.5 0  22.75658349581136 50.5 0  23.05709552442124 50.5 0  23.33856909343812 50.5 0  23.60221031035009 50.5 0  23.8491489196949 50.5 0  24.08044314138694 50.5 0  24.29708401977037 50.5 0  24.29708401977037 49.5 0  24.08044314138694 49.5 0  23.8491489196949 49.5 0  23.6022103103501 49.5 0  23.33856909343813 49.5 0  23.05709552442125 49.5 0  22.75658349581136 49.5 0  22.43574522275861 49.5 0  22.09320586309756 49.5 0  21.72749758188098 49.5 0  21.33705330448883 49.5 0  20.92019997326993 49.5 0  20.47515120167095 49.5 0  6.120412593464062 49.5 0  10.49556498072933 49.5 0  13.62312453054427 49.5 0  15.85884727978738 49.5 0  17.45704437958013 49.5 0  18.5995091469825 49.5 0  19.41619524474999 49.5 0  93.87958740647669 50.5 0  89.50443501919381 50.5 0  86.37687546938463 50.5 0  84.14115272015442 50.5 0  82.54295562037724 50.5 0  81.40049085299049 50.5 0  80.5838047552374 50.5 0  79.52484879832905 50.5 0  79.07980002673007 50.5 0  78.66294669551117 50.5 0  78.27250241811902 50.5 0  77.90679413690243 50.5 0  77.5642547772414 50.5 0  77.24341650418864 50.5 0  76.94290447557876 50.5 0  76.66143090656188 50.5 0  76.39778968964991 50.5 0  76.1508510803051 50.5 0  75.91955685861306 50.5 0  75.70291598022963 50.5 0  75.70291598022963 49.5 0  75.91955685861306 49.5 0  76.1508510803051 49.5 0  76.39778968964991 49.5 0  76.66143090656188 49.5 0  76.94290447557876 49.5 0  77.24341650418864 49.5 0  77.56425477724139 49.5 0  77.90679413690243 49.5 0  78.27250241811902 49.5 0  78.66294669551118 49.5 0  79.07980002673007 49.5 0  79.52484879832905 49.5 0  80.5838047552374 49.5 0  81.40049085299049 49.5 0  82.54295562037723 49.5 0  84.14115272015439 49.5 0  86.3768754693846 49.5 0  89.50443501919378 49.5 0  93.87958740647666 49.5 0  50 92.72111048148359 0  50 87.44430513406535 0  50 83.61890508869973 0  50 80.84569537599788 0  50 78.83526725030589 0  50 77.37781470319995 0  50 76.32123989355226 0  50 75.55527989155394 0  50 74.49999999999723 0  50 73.99999999999444 0  50 73.49999999999167 0  50 72.9999999999889 0  50 72.49999999998612 0  50 71.99999999998334 0  50 71.49999999998057 0  50 70.9999999999778 0  50 70.49999999997502 0  50 69.99999999997225 0  50 69.49999999996948 0  50 68.99999999996669 0  50 68.49999999996392 0  50 67.99999999996115 0  50 67.49999999995836 0  50 66.99999999995559 0  50 66.49999999995282 0  50 65.99999999995003 0  50 65.49999999994726 0  50 64.99999999994449 0  50 64.49999999994171 0  50 63.99999999993982 0  50 63.49999999994937 0  50 62.99999999996081 0  50 62.49999999997224 0  50 61.99999999998368 0  50 61.49999999999511 0  50 61.00000000000655 0  50 60.50000000001798 0  50 60.00000000002942 0  50 59.50000000004086 0  50 59.00000000004974 0  50 58.50000000004718 0  50 58.00000000004441 0  50 57.50000000004164 0  50 57.00000000003886 0  50 56.50000000003608 0  50 56.00000000003331 0  50 55.50000000003053 0  50 55.00000000002775 0  50 54.50000000002498 0  50 54.0000000000222 0  50 53.50000000001943 0  50 53.00000000001666 0  50 52.50000000001388 0  50 52.0000000000111 0  50 51.50000000000833 0  50 51.00000000000556 0  50 50.50000000000278 0  50 49.50000000000319 0  50 49.00000000000639 0  50 48.50000000000958 0  50 48.00000000001277 0  50 47.50000000001596 0  50 47.00000000001916 0  50 46.50000000002235 0  50 46.00000000002554 0  50 45.50000000002873 0  50 45.00000000003192 0  50 44.50000000003512 0  50 44.00000000003831 0  50 43.5000000000415 0  50 43.00000000004469 0  50 42.50000000004789 0  50 42.00000000005108 0  50 41.50000000005427 0  50 41.00000000005746 0  50 40.50000000006066 0  50 40.00000000006385 0  50 39.50000000006704 0  50 39.00000000007024 0  50 38.50000000007343 0  50 38.00000000007662 0  50 37.50000000007981 0  50 37.00000000008301 0  50 36.5000000000862 0  50 36.00000000008939 0  50 35.50000000009258 0  50 35.00000000009578 0  50 34.50000000009896 0  50 34.0000000000996 0  50 33.50000000008881 0  50 33.00000000007779 0  50 32.50000000006678 0  50 32.00000000005598 0  50 31.5000000000509 0  50 31.00000000004698 0  50 30.50000000004307 0  50 30.00000000003915 0  50 29.50000000003524 0  50 29.00000000003132 0  50 28.50000000002741 0  50 28.00000000002349 0  50 27.50000000001958 0  50 27.0
[...]
<PointData  Vectors="Displacement"> 
<DataArray  type="Float64"  Name="Displacement"  NumberOfComponents="3" format="ascii">0.0000000000000000e+00 0.0000000000000000e+00 0.0000000000000000e+00  0.0000000000000000e+00 0.0000000000000000e+00 0.0000000000000000e+00  0.0000000000000000e+00 0.0000000000000000e+00 0.0000000000000000e+00  1.0518737048321614e-03 2.6629981899106199e-04 0.0000000000000000e+00  2.2174802298001901e-03 2.5080657477409502e-03 0.0000000000000000e+00  3.5000000000000001e-03 3.5000000000000001e-03 0.0000000000000000e+00  3.5000000000000001e-03 3.5000000000000001e-03 0.0000000000000000e+00  3.5000000000000001e-03 3.5000000000000001e-03 0.0000000000000000e+00  2.4481262917950869e-03 3.2337001819178249e-03 0.0000000000000000e+00  1.2825197646496448e-03 9.9193424900745927e-04 0.0000000000000000e+00  3.0069601241947195e-03 3.3915696917418076e-03 0.0000000000000000e+00  9.5765785435544110e-04 8.1617679576043807e-04 0.0000000000000000e+00  4.9303987360869495e-04 1.0843030919538199e-04 0.0000000000000000e+00  2.5423421410666843e-03 2.6838232008272399e-03 0.0000000000000000e+00  1.5741710170928715e-03 1.7019449532196199e-03 0.0000000000000000e+00  1.9121603345006062e-03 2.2504848144900141e-03 0.0000000000000000e+00  1.9258289772171519e-03 1.7980550460299234e-03 0.0000000000000000e+00  1.5878396609507368e-03 1.2495151857904064e-03 0.0000000000000000e+00  1.3663841120188122e-03 8.2276615978473877e-04 0.0000000000000000e+00  2.1090297190866627e-03 2.1944882859005594e-03 0.0000000000000000e+00  2.1336158840007061e-03 2.6772338407250284e-03 0.0000000000000000e+00  1.3909702748499118e-03 1.3055117124410563e-03 0.0000000000000000e+00  2.9615487723072646e-03 3.0800312019088733e-03 0.0000000000000000e+00  2.7643355846090692e-03 2.6794985299151176e-03 0.0000000000000000e+00  2.6097542282225872e-03 2.7133918440088241e-03 0.0000000000000000e+00  5.3845122552545358e-04 4.1996879871176491e-04 0.0000000000000000e+00  7.3566441427301988e-04 8.2050147244370391e-04 0.0000000000000000e+00  8.9024576474320269e-04 7.8660813985829828e-04 0.0000000000000000e+00  1.7499999976696853e-03 1.7500000004387474e-03 0.0000000000000000e+00  1.7613810551965073e-03 2.0020272868937158e-03 0.0000000000000000e+00  1.7386189398328525e-03 1.4979727131639018e-03 0.0000000000000000e+00  1.8869913316910630e-03 2.2031709434312840e-03 0.0000000000000000e+00  1.8518148785631853e-03 2.1458997540518905e-03 0.0000000000000000e+00  1.8099119364158210e-03 2.0812522545832386e-03 0.0000000000000000e+00  1.7064806550045333e-03 1.9095058001859563e-03 0.0000000000000000e+00  1.6500861229926695e-03 1.8216543886057064e-03 0.0000000000000000e+00  1.6051570719570580e-03 1.7529147476824985e-03 0.0000000000000000e+00  1.8948429224380843e-03 1.7470852516550158e-03 0.0000000000000000e+00  1.8499138715875041e-03 1.6783456109188599e-03 0.0000000000000000e+00  1.7935193398191877e-03 1.5904941996176475e-03 0.0000000000000000e+00  1.6900880587649685e-03 1.4187477456127071e-03 0.0000000000000000e+00  1.6481851167282778e-03 1.3541002461872457e-03 0.0000000000000000e+00  1.6130086636908588e-03 1.2968290568312652e-03 0.0000000000000000e+00  1.7499559455595890e-03 1.9823141754530603e-03 0.0000000000000000e+00  1.7463601191712353e-03 1.9689202636570084e-03 0.0000000000000000e+00  1.7451629881646284e-03 1.9593731726169766e-03 0.0000000000000000e+00  1.7453922876561028e-03 1.9525558910213612e-03 0.0000000000000000e+00  1.7462976859027811e-03 1.9472356161244603e-03 0.0000000000000000e+00  1.7475038208450999e-03 1.9427702426528921e-03 0.0000000000000000e+00  1.7488174149758011e-03 1.9388170102442514e-03 0.0000000000000000e+00  1.7501476248169691e-03 1.9352047212162857e-03 0.0000000000000000e+00  1.7514463591005039e-03 1.9318312167567887e-03 0.0000000000000000e+00  1.7526953920075328e-03 1.9286332799233366e-03 0.0000000000000000e+00  1.7538842202544872e-03 1.9255695683557464e-03 0.0000000000000000e+00  1.7550078588141195e-03 1.9226108751274689e-03 0.0000000000000000e+00  1.7560675089333985e-03 1.9197354101562723e-03 0.0000000000000000e+00  1.7570617154484670e-03 1.9169283522762529e-03 0.0000000000000000e+00  1.7579937681830755e-03 1.9141768400732970e-03 0.0000000000000000e+00  1.7588658098110592e-03 1.9114719018546110e-03 0.0000000000000000e+00  1.7596810140394460e-03 1.9088056792322952e-03 0.0000000000000000e+00  1.7604414702974134e-03 1.9061723595815614e-03 0.0000000000000000e+00  1.7611490315388753e-03 1.9035672042101153e-03 0.0000000000000000e+00  1.7618076553813512e-03 1.9009851872554915e-03 0.0000000000000000e+00  1.7624174106536758e-03 1.8984232844609862e-03 0.0000000000000000e+00  1.7629818555741569e-03 1.8958781607625688e-03 0.0000000000000000e+00  1.7635021524646042e-03 1.8933474351603176e-03 0.0000000000000000e+00  1.7639804279656471e-03 1.8908286507457841e-03 0.0000000000000000e+00  1.7644180128828307e-03 1.8883199206757211e-03 0.0000000000000000e+00  1.7648164850241159e-03 1.8858193734345766e-03 0.0000000000000000e+00  1.7651773771588800e-03 1.8833255575065972e-03 0.0000000000000000e+00  1.7655015184996320e-03 1.8808371176352843e-03 0.0000000000000000e+00  1.7657906058501222e-03 1.8783526152304252e-03 0.0000000000000000e+00  1.7660451629146819e-03 1.8758709558107268e-03 0.0000000000000000e+00  1.7662667617562462e-03 1.8733911922035739e-03 0.0000000000000000e+00  1.7664557308856674e-03 1.8709124885125559e-03 0.0000000000000000e+00  1.7666134611196004e-03 1.8684337143754729e-03 0.0000000000000000e+00  1.7667404765601895e-03 1.8659541374943770e-03 0.0000000000000000e+00  1.7668373384380801e-03 1.8634731794090094e-03 0.0000000000000000e+00  1.7669052226287662e-03 1.8609899777165106e-03 0.0000000000000000e+00  1.7669443612837001e-03 1.8585038175033858e-03 0.0000000000000000e+00  1.7669554559699202e-03 1.8560141694471256e-03 0.0000000000000000e+00  1.7669391455031305e-03 1.8535205092442501e-03 0.0000000000000000e+00  1.7668959573785624e-03 1.8510221622748103e-03 0.0000000000000000e+00  1.7668264399950660e-03 1.8485186163465226e-03 0.0000000000000000e+00  1.7667309236648050e-03 1.8460092780487353e-03 0.0000000000000000e+00  1.7666099268553676e-03 1.8434936955760795e-03 0.0000000000000000e+00  1.7664639465116633e-03 1.8409713575346326e-03 0.0000000000000000e+00  1.7662932555501992e-03 1.8384417314710774e-03 0.0000000000000000e+00  1.7660984808461572e-03 1.8359042955251588e-03 0.0000000000000000e+00  1.7658796858918354e-03 1.8333585451425442e-03 0.0000000000000000e+00  1.7656374796916306e-03 1.8308040291567399e-03 0.0000000000000000e+00  1.7653721785673305e-03 1.8282402436768195e-03 0.0000000000000000e+00  1.7650840037938501e-03 1.8256666768803028e-03 0.0000000000000000e+00  1.7647734515650493e-03 1.8230827504427819e-03 0.0000000000000000e+00  1.7644407042664131e-03 1.8204879372346965e-03 0.0000000000000000e+00  1.7640862135074741e-03 1.8178817290253257e-03 0.0000000000000000e+00  1.7637102276384506e-03 1.8152635707825327e-03 0.0000000000000000e+00  1.7633131305741252e-03 1.8126328401377120e-03 0.0000000000000000e+00  1.7628951913591100e-03 1.8099889675704673e-03 0.0000000000000000e+00  1.7624567551566106e-03 1.8073312845775377e-03 0.0000000000000000e+00  1.7619981812432046e-03 1.8046591619252268e-03 0.0000000000000000e+00  1.7615197728151533e-03 1.8019719493790041e-03 0.0000000000000000e+00  1.7610219467169136e-03 1.7992688912700189e-03 0.0000000000000000e+00  1.7605049626358137e-03 1.7965492816344561e-03 0.0000000000000000e+00  1.7599692211908483e-03 1.7938122721387927e-03 0.0000000000000000e+00  1.7594151586116027e-03 1.7910571090279596e-03 0.0000000000000000e+00  1.7588431618334619e-03 1.7882829514705495e-03 0.0000000000000000e+00  1.7582535439832371e-03 1.7854888778826431e-03 0.0000000000000000e+00  1.7576469560964031e-03 1.7826738706468587e-03 0.0000000000000000e+00  1.7570236175135467e-03 1.7798370011882019e-03 0.0000000000000000e+00  1.7563841364311890e-03 1.7769771935416897e-03 0.0000000000000000e+00  1.7557291133607615e-03 1.7740933295599195e-03 0.0000000000000000e+00  1.7550589363548635e-03 1.7711842068045061e-03 0.0000000000000000e+00  1.7543742545243161e-03 1.7682485981043276e-03 0.0000000000000000e+00  1.7536756877353141e-03 1.7652852413540252e-03 0.0000000000000000e+00  1.7529640143880891e-03 1.7622926512558790e-03 0.0000000000000000e+00  1.7522396808289978e-03 1.7592694752746453e-03 0.0000000000000000e+00  1.7515038098568482e-03 1.7562140284278919e-03 0.0000000000000000e+00  1.7507568698936662e-03 1.7531248319538537e-03 0.0000000000000000e+00  1.7492431254453606e-03 1.7468751689231963e-03 0.0000000000000000e+00  1.7484961854811033e-03 1.7437859724476043e-03 0.0000000000000000e+00  1.7477603145071754e-03 1.7407305255982349e-03 0.0000000000000000e+00  1.7470359809456358e-03 1.7377073496133619e-03 0.0000000000000000e+00  1.7463243075953264e-03 1.7347147595105905e-03 0.0000000000000000e+00  1.7456257408026488e-03 1.7317514027547392e-03 0.0000000000000000e+00  1.7449410589678513e-03 1.7288157940480960e-03 0.0000000000000000e+00  1.7442708819571618e-03 1.7259066712853426e-03 0.0000000000000000e+00  1.7436158588814462e-03 1.7230228072954083e-03 0.0000000000000000e+00  1.7429763777933359e-03 1.7201629996399408e-03 0.0000000000000000e+00  1.7423530392042862e-03 1.7173261301715549e-03 0.0000000000000000e+00  1.7417464513108734e-03 1.7145111229253320e-03 0.0000000000000000e+00  1.7411568334537058e-03 1.7117170493262930e-03 0.0000000000000000e+00  1.7405848366682944e-03 1.7089428917570998e-03 0.0000000000000000e+00  1.7400307740814834e-03 1.7061877286338616e-03 0.0000000000000000e+00  1.7394950326286894e-03 1.7034507191252084e-03 0.0000000000000000e+00  1.7389780485395218e-03 1.7007311094760932e-03 0.0000000000000000e+00  1.7384802224330092e-03 1.6980280513530343e-03 0.0000000000000000e+00  1.7380018139965222e-03 1.6953408387922579e-03 0.0000000000000000e+00  1.7375432400745280e-03 1.6926687161249213e-03 0.0000000000000000e+00  1.7371048038633049e-03 1.6900110331164874e-03 0.0000000000000000e+00  1.7366868646394615e-03 1.6873671605332982e-03 0.0000000000000000e+00  1.7362897675662532e-03 1.6847364298721763e-03 0.0000000000000000e+00  1.7359137816883000e-03 1.6821182716127443e-03 0.0000000000000000e+00  1.7355592909204078e-03 1.6795120633864124e-03 0.0000000000000000e+00  1.7352265436128196e-03 1.6769172501610826e-03 0.0000000000000000e+00  1.7349159913750908e-03 1.6743333237060666e-03 0.0000000000000000e+00  1.7346278165927169e-03 1.6717597568918115e-03 0.0000000000000000e+00  1.7343625154595803e-03 1.6691959713939458e-03 0.0000000000000000e+00  1.7341203092506065e-03 1.6666414553900108e-03 0.0000000000000000e+00  1.7339015142875972e-03 1.6640957049890966e-03 0.0000000000000000e+00  1.7337067395749779e-03 1.6615582690247572e-03 0.0000000000000000e+00  1.7335360486050490e-03 1.6590286429426560e-03 0.0000000000000000e+00  1.7333900682530044e-03 1.6565063048825726e-03 0.0000000000000000e+00  1.7332690714353598e-03 1.6539907223911616e-03 0.0000000000000000e+00  1.7331735550970299e-03 1.6514813840745341e-03 0.0000000000000000e+00  1.7331040377056251e-03 1.6489778381273800e-03 0.0000000000000000e+00  1.7330608495733234e-03 1.6464794911390697e-03 0.0000000000000000e+00  1.7330445390989597e-03 1.6439858309173203e-03 0.0000000000000000e+00  1.7330556337777781e-03 1.6414961828422061e-03 0.0000000000000000e+00  1.7330947724254957e-03 1.6390100226102715e-03 0.0000000000000000e+00  1.7331626566091539e-03 1.6365268208990197e-03 0.0000000000000000e+00  1.7332595184802097e-03 1.6340458627949759e-03 0.0000000000000000e+00  1.7333865339141591e-03 1.6315662858952897e-03 0.0000000000000000e+00  1.7335442641416589e-03 1.6290875117397339e-03 0.0000000000000000e+00  1.7337332332648357e-03 1.6266088080303515e-03 0.0000000000000000e+00  1.7339548321003546e-03 1.6241290444049745e-03 0.0000000000000000e+00  1.7342093891590732e-03 1.6216473849672117e-03 0.0000000000000000e+00  1.7344984765039302e-03 1.6191628825444600e-03 0.0000000000000000e+00  1.7348226178392518e-03 1.6166744426554364e-03 0.0000000000000000e+00  1.7351835099687889e-03 1.6141806267099437e-03 0.0000000000000000e+00  1.7355819821050496e-03 1.6116800794515112e-03 0.0000000000000000e+00  1.7360195670174021e-03 1.6091713493643870e-03 0.0000000000000000e+00  1.7364978425138257e-03 1.6066525649330518e-03 0.0000000000000000e+00  1.7370181393998525e-03 1.6041218393142728e-03 0.0000000000000000e+00  1.7375825843161123e-03 1.6015767155996210e-03 0.0000000000000000e+00  1.7381923395844154e-03 1.5990148127891966e-03 0.0000000000000000e+00  1.7388509634230632e-03 1.5964327958189956e-03 0.0000000000000000e+00  1.7395585246608920e-03 1.5938276404323347e-03 0.0000000000000000e+00  1.7403189809154095e-03 1.5911943207667664e-03 0.0000000000000000e+00  1.7411341851405521e-03 1.5885280981300571e-03 0.0000000000000000e+00  1.7420062267654969e-03 1.5858231598974478e-03 0.0000000000000000e+00  1.7429382794972674e-03 1.5830716476810832e-03 0.0000000000000000e+00  1.7439324860097144e-03 1.5802645897882270e-03 0.0000000000000000e+00  1.7449921361266285e-03 1.5773891248048737e-03 0.0000000000000000e+00  1.7461157746841939e-03 1.5744304315652208e-03 0.0000000000000000e+00  1.7473046029294244e-03 1.5713667199871767e-03 0.0000000000000000e+00  1.7485536358351620e-03 1.5681687831443909e-03 0.0000000000000000e+00  1.7498523701179886e-03 1.5647952786769905e-03 0.0000000000000000e+00  1.7511825799592987e-03 1.5611829896430434e-03 0.0000000000000000e+00  1.7524961740914755e-03 1.5572297572312120e-03 0.0000000000000000e+00  1.7537023090374174e-03 1.5527643837607828e-03 0.0000000000000000e+00  1.7546077072914496e-03 1.5474441088724835e-03 0.0000000000000000e+00  1.7548370067958531e-03 1.5406268272983106e-03 0.0000000000000000e+00  1.7536398758080168e-03 1.5310797362956948e-03 0.0000000000000000e+00  1.7500440494389224e-03 1.5176858245444240e-03 0.0000000000000000e+00  1.2711069943357131e-03 9.8848209145921298e-04 0.0000000000000000e+00  1.2153646207879031e-03 9.6581147434717538e-04 0.0000000000000000e+00  1.1080907380620578e-03 9.0988565297261492e-04 0.0000000000000000e+00  7.2149035225393032e-04 6.4630208841816241e-04 0.0000000000000000e+00  4.1901315814596007e-04 4.0056166671866657e-04 0.0000000000000000e+00  0.0000000000000000e+00 0.0000000000000000e+00 0.0000000000000000e+00  0.0000000000000000e+00 0.0000000000000000e+00 0.0000000000000000e+00  0.0000000000000000e+00 0.0000000000000000e+00 0.0000000000000000e+00  0.0000000000000000e+00 0.0000000000000000e+00 0.0000000000000000e+00  0.0000000000000000e+00 0.0000000000000000e+00 0.0000000000000000e+00  0.0000000000000000e+00 0.0000000000000000e+00 0.0000000000000000e+00  0.0000000000000000e+00 0.0000000000000000e+00 0.0000000000000000e+00  0.0000000000000000e+00 0.0000000000000000e+00 0.0000000000000000e+00  1.3237453417256048e-04 1.1764704325543607e-05 0.0000000000000000e+00  3.0359969941423903e-04 5.6626539373213224e-05 0.0000000000000000e+00  6.5704135636708322e-04 1.5194157747894292e-04 0.0000000000000000e+00  8.2250905442132576e-04 1.9600629019097163e-04 0.0000000000000000e+00  9.6844762743842358e-04 2.3810472956261436e-04 0.0000000000000000e+00  2.2288930002996761e-03 2.5115179052525188e-03 0.0000000000000000e+00  2.2846353741561728e-03 2.5341885223753649e-03 0.0000000000000000e+00  2.3919092571244235e-03 2.5901143437815394e-03 0.0000000000000000e+00  2.7785096441750442e-03 2.8536979077506638e-03 0.0000000000000000e+00  3.0809868402289944e-03 3.0994383304399427e-03 0.0000000000000000e+00  3.5000000000000001e-03 3.5000000000000001e-03 0.0000000000000000e+00  3.5000000000000001e-03 3.5000000000000001e-03 0.0000000000000000e+00  3.5000000000000001e-03 3.5000000000000001e-03 0.0000000000000000e+00  3.5000000000000001e-03 3.5000000000000001e-03 0.0000000000000000e+00  3.5000000000000001e-03 3.5000000000000001e-03 0.0000000000000000e+00  3.5000000000000001e-03 3.5000000000000001e-03 0.0000000000000000e+00  3.5000000000000001e-03 3.5000000000000001e-03 0.0000000000000000e+00  3.5000000000000001e-03 3.5000000000000001e-03 0.0000000000000000e+00  3.3676254649565316e-03 3.4882352962449545e-03 0.0000000000000000e+00  3.1964002989910037e-03 3.4433734614473951e-03 0.0000000000000000e+00  2.8429586410172081e-03 3.3480584235015044e-03 0.0000000000000000e+00  2.6774909426023593e-03 3.3039937107915023e-03 0.0000000000000000e+00  2.5315523693144682e-03 3.2618952713838606e-03 0.0000000000000000e+00  2.4098993586922509e-03 3.1576731075024919e-03 0.0000000000000000e+00  2.3529443314761456e-03 3.0582595093755997e-03 0.0000000000000000e+00  2.2977432030350511e-03 2.9636937044294435e-03 0.0000000000000000e+00  2.2494550433489295e-03 2.8808320713168832e-03 0.0000000000000000e+00  2.2095378903494228e-03 2.8115614602120232e-03 0.0000000000000000e+00  2.1775878881213884e-03 2.7555156676028697e-03 0.0000000000000000e+00  2.1526715092692944e-03 2.7113348975573563e-03 0.0000000000000000e+00  2.1172333251451769e-03 2.6476774152877354e-03 0.0000000000000000e+00  2.1010826325047771e-03 2.6183097767388812e-03 0.0000000000000000e+00  2.0851518231264571e-03 2.5891054944899997e-03 0.0000000000000000e+00  2.0694337519520660e-03 2.5600350215932324e-03 0.0000000000000000e+00  2.0538992676581401e-03 2.5310498171959802e-03 0.0000000000000000e+00  2.0385344108981560e-03 2.5020937337852452e-03 0.0000000000000000e+00  2.0233003300941222e-03 2.4730910000461052e-03 0.0000000000000000e+00  2.0081510137853436e-03 2.4439354875545405e-03 0.0000000000000000e+00  1.9930406165081676e-03 2.4144992040675420e-03 0.0000000000000000e+00  1.9778926414455731e-03 2.3845966522310488e-03 0.0000000000000000e+00  1.9625891696916100e-03 2.3539511657268753e-03 0.0000000000000000e+00  1.9469623322747568e-03 2.3221472171792794e-03 0.0000000000000000e+00  1.9306641874566870e-03 2.2884084680548375e-03 0.0000000000000000e+00  1.5522948778570061e-03 1.6626084759771059e-03 0.0000000000000000e+00  1.5353548018495976e-03 1.6288694474159615e-03 0.0000000000000000e+00  1.5202344407076987e-03 1.5976520037519033e-03 0.0000000000000000e+00  1.5061976278253988e-03 1.5680250222434139e-03 0.0000000000000000e+00  1.4929407918039916e-03 1.5395203825944055e-03 0.0000000000000000e+00  1.4802514980347466e-03 1.5118363162047346e-03 0.0000000000000000e+00  1.4680190528103350e-03 1.4847811312673569e-03 0.0000000000000000e+00  1.4561690608134925e-03 1.4582158386788630e-03 0.0000000000000000e+00  1.4446311530403669e-03 1.4320401563530909e-03 0.0000000000000000e+00  1.4333861553703917e-03 1.4061949142119281e-03 0.0000000000000000e+00  1.4224051913150550e-03 1.3806353306429558e-03 0.0000000000000000e+00  1.4116717475300587e-03 1.3553365372803920e-03 0.0000000000000000e+00  1.4011960800782385e-03 1.3302951419088484e-03 0.0000000000000000e+00  1.2848218243758992e-03 1.0030421605538293e-03 0.0000000000000000e+00  1.2949799822047901e-03 1.0417297039519596e-03 0.0000000000000000e+00  1.3113886034754913e-03 1.0941743665766107e-03 0.0000000000000000e+00  1.3303206717740314e-03 1.1487147499246496e-03 0.0000000000000000e+00  1.3488808739173332e-03 1.1989498610933493e-03 0.0000000000000000e+00  1.3655309416598814e-03 1.2421027048206401e-03 0.0000000000000000e+00  1.3795884613177019e-03 1.2774753053109596e-03 0.0000000000000000e+00  2.2151781699713898e-03 2.4969578363221931e-03 0.0000000000000000e+00  2.2050200119505042e-03 2.4582702931373593e-03 0.0000000000000000e+00  2.1886113905159664e-03 2.4058256307983995e-03 0.0000000000000000e+00  2.1696793221341686e-03 2.3512852477429918e-03 0.0000000000000000e+00  2.1511191199703153e-03 2.3010501368217629e-03 0.0000000000000000e+00  2.1344690522380068e-03 2.2578972932826430e-03 0.0000000000000000e+00  2.1204115325994875e-03 2.2225246929302727e-03 0.0000000000000000e+00  2.0988039138771768e-03 2.1697048565153085e-03 0.0000000000000000e+00  2.0883282464456898e-03 2.1446634612225330e-03 0.0000000000000000e+00  2.0775948026822799e-03 2.1193646679354221e-03 0.0000000000000000e+00  2.0666138386496447e-03 2.0938050844389821e-03 0.0000000000000000e+00  2.0553688410034276e-03 2.0679598423677058e-03 0.0000000000000000e+00  2.0438309332551142e-03 2.0417841601094327e-03 0.0000000000000000e+