<?xml version="1.0"?>
<VTKFile type="UnstructuredGrid"  version="0.1"  >
<UnstructuredGrid>
<Piece  NumberOfPoints="24256" NumberOfCells="48358">
<Points>
<DataArray  type="Float64"  NumberOfComponents="3"  format="ascii">0 0 0  50 0 0  100 0 0  100 49.5 0  100 50.5 0  100 100 0  50 100 0  0 100 0  0 50.5 0  0 49.5 0  0 75 0  0 25 0  100 25 0  100 75 0  24.5 49.5 0  24.5 50.5 0  75.5 50.5 0  75.5 49.5 0  80 49.5 0  80 50.5 0  20 50.5 0  20 49.5 0  20 75 0  50 75 0  80 75 0  80 25 0  50 25 0  20 25 0  50 50 0  25 50 0  75 50 0  24.6913417161905 50.46193976625235 0  24.85355339060025 50.3535533905863 0  24.96193976626094 50.19134171616977 0  24.96193976626191 49.80865828383259 0  24.85355339060165 49.6464466094151 0  24.69134171619181 49.5380602337482 0  75.30865828380529 50.4619397662506 0  75.14644660940547 50.35355339059202 0  75.03806023374186 50.1913417161765 0  75.03806023374065 49.80865828382641 0  75.14644660940286 49.6464466094106 0  75.3086582838058 49.53806023374919 0  25.19951614622269 50 0  25.40142063054872 50 0  25.60574210295544 50 0  25.81250948266545 50 0  26.0217520778856 50 0  26.23349951676287 50 0  26.44778179878875 50 0  26.6646292257103 50 0  26.88407252000402 50 0  27.10614273817509 50 0  27.33087139223914 50 0  27.5582902617968 50 0  27.78843154377079 50 0  28.02132779859583 50 0  28.25701212732613 50 0  28.49551779753923 50 0  28.73687860057358 50 0  28.98112872321073 50 0  29.22830275592332 50 0  29.47843570044527 50 0  29.73156297669333 50 0  29.98772042906865 50 0  30.24694433216624 50 0  30.50927139591921 50 0  30.77473877020432 50 0  31.04338404893412 50 0  31.31524527366058 50 0  31.59036093671394 50 0  31.86876998390005 50 0  32.15051184795058 50 0  32.43562649009755 50 0  32.72415415620186 50 0  33.01613584464261 50 0  33.31161281585579 50 0  33.61062692242808 50 0  33.91322051012257 50 0  34.21943640671003 50 0  34.52931807773269 50 0  34.84290928650268 50 0  35.16025460694943 50 0  35.48139871583209 50 0  35.8063872838676 50 0  36.1352662367809 50 0  36.46808207817695 50 0  36.80488218829193 50 0  37.14571406174852 50 0  37.49062618898397 50 0  37.83966709981627 50 0  38.1928863950564 50 0  38.55033394694173 50 0  38.91206068919998 50 0  39.27811755190851 50 0  39.64855635406197 50 0  40.02342992204706 50 0  40.40279094884485 50 0  40.78669330115305 50 0  41.1751912579513 50 0  41.56834005356981 50 0  41.96619511805834 50 0  42.36881293145003 50 0  42.77625048200917 50 0  43.18856530542669 50 0  43.60581617975753 50 0  44.02806183666044 50 0  44.45536217468985 50 0  44.88777770917031 50 0  45.32536960312584 50 0  45.76820003270851 50 0  46.21633143285066 50 0  46.66982755007726 50 0  47.12875237761952 50 0  47.59317096415209 50 0  48.06314909969768 50 0  48.53875333639597 50 0  49.02005100772931 50 0  49.50711024626847 50 0  50.49288975371359 50 0  50.97994899223524 50 0  51.46124666355149 50 0  51.93685090023309 50 0  52.40682903576241 50 0  52.8712476222791 50 0  53.33017244980586 50 0  53.78366856701732 50 0  54.23179996714473 50 0  54.67463039671301 50 0  55.11222229065453 50 0  55.54463782512131 50 0  55.97193816313742 50 0  56.39418382002735 50 0  56.81143469434553 50 0  57.22374951775078 50 0  57.63118706829796 50 0  58.03380488167798 50 0  58.43165994615514 50 0  58.8248087417626 50 0  59.21330669855615 50 0  59.59720905086467 50 0  59.97657007766281 50 0  60.35144364564827 50 0  60.72188244780216 50 0  61.08793931051112 50 0  61.44966605276986 50 0  61.80711360465571 50 0  62.16033289989638 50 0  62.50937381072924 50 0  62.85428593796531 50 0  63.19511781142246 50 0  63.53191792153814 50 0  63.86473376293482 50 0  64.19361271585434 50 0  64.51860128389967 50 0  64.83974539279198 50 0  65.15709071324817 50 0  65.47068192202742 50 0  65.78056359305916 50 0  66.08677948965553 50 0  66.38937307735874 50 0  66.68838718393957 50 0  66.98386415516111 50 0  67.27584584361004 50 0  67.5643735097224 50 0  67.84948815187724 50 0  68.13123001593549 50 0  68.40963906312913 50 0  68.68475472618989 50 0  68.95661595092359 50 0  69.2252612296605 50 0  69.49072860395255 50 0  69.7530556677123 50 0  70.01227957081655 50 0  70.26843702319839 50 0  70.52156429945282 50 0  70.771697243981 50 0  71.01887127669971 50 0  71.26312139934282 50 0  71.504482202383 50 0  71.74298787260182 50 0  71.9786722013377 50 0  72.21156845616824 50 0  72.44170973814758 50 0  72.66912860771049 50 0  72.89385726177966 50 0  73.11592747995573 50 0  73.33537077425433 50 0  73.55221820118066 50 0  73.76650048321122 50 0  73.97824792209306 50 0  74.18749051731768 50 0  74.39425789703208 50 0  74.59857936944304 50 0  74.80048385377326 50 0  0 43.37500000000002 0  0 37.25000000000004 0  0 31.12500000000004 0  0 17.27826487323784 0  0 8.960276504660179 0  9.999999999957065 0 0  19.99999999992002 0 0  29.99999999990366 0 0  39.99999999994531 0 0  59.99999999989675 0 0  69.9999999997935 0 0  79.99999999969025 0 0  89.99999999981904 0 0  100 8.960276504556731 0  100 17.27826487314172 0  100 31.12499999999998 0  100 37.24999999999996 0  100 43.37499999999996 0  100 56.6250000000798 0  100 62.7500000001596 0  100 68.87500000009784 0  100 82.7217351268162 0  100 91.03972349540425 0  90.00000000006384 100 0  80.00000000012767 100 0  70.00000000019152 100 0  60.00000000007827 100 0  40.00000000007105 100 0  30.00000000012907 100 0  20.00000000012907 100 0  10.00000000007105 100 0  0 91.03972349540425 0  0 82.72173512681618 0  0 68.87500000009786 0  0 62.75000000015963 0  0 56.62500000007984 0  6.120412593464062 50.5 0  10.49556498072933 50.5 0  13.62312453054427 50.5 0  15.85884727978738 50.5 0  17.45704437958013 50.5 0  18.5995091469825 50.5 0  19.41619524474999 50.5 0  20.47515120167095 50.5 0  20.92019997326993 50.5 0  21.33705330448883 50.5 0  21.72749758188099 50.5 0  22.09320586309756 50.5 0  22.43574522275861 50.5 0  22.75658349581136 50.5 0  23.05709552442124 50.5 0  23.33856909343812 50.5 0  23.60221031035009 50.5 0  23.8491489196949 50.5 0  24.08044314138694 50.5 0  24.29708401977037 50.5 0  24.29708401977037 49.5 0  24.08044314138694 49.5 0  23.8491489196949 49.5 0  23.6022103103501 49.5 0  23.33856909343813 49.5 0  23.05709552442125 49.5 0  22.75658349581136 49.5 0  22.43574522275861 49.5 0  22.09320586309756 49.5 0  21.72749758188098 49.5 0  21.33705330448883 49.5 0  20.92019997326993 49.5 0  20.47515120167095 49.5 0  6.120412593464062 49.5 0  10.49556498072933 49.5 0  13.62312453054427 49.5 0  15.85884727978738 49.5 0  17.45704437958013 49.5 0  18.5995091469825 49.5 0  19.41619524474999 49.5 0  93.87958740647669 50.5 0  89.50443501919381 50.5 0  86.37687546938463 50.5 0  84.14115272015442 50.5 0  82.54295562037724 50.5 0  81.40049085299049 50.5 0  80.5838047552374 50.5 0  79.52484879832905 50.5 0  79.07980002673007 50.5 0  78.66294669551117 50.5 0  78.27250241811902 50.5 0  77.90679413690243 50.5 0  77.5642547772414 50.5 0  77.24341650418864 50.5 0  76.94290447557876 50.5 0  76.66143090656188 50.5 0  76.39778968964991 50.5 0  76.1508510803051 50.5 0  75.91955685861306 50.5 0  75.70291598022963 50.5 0  75.70291598022963 49.5 0  75.91955685861306 49.5 0  76.1508510803051 49.5 0  76.39778968964991 49.5 0  76.66143090656188 49.5 0  76.94290447557876 49.5 0  77.24341650418864 49.5 0  77.56425477724139 49.5 0  77.90679413690243 49.5 0  78.27250241811902 49.5 0  78.66294669551118 49.5 0  79.07980002673007 49.5 0  79.52484879832905 49.5 0  80.5838047552374 49.5 0  81.40049085299049 49.5 0  82.54295562037723 49.5 0  84.14115272015439 49.5 0  86.3768754693846 49.5 0  89.50443501919378 49.5 0  93.87958740647666 49.5 0  50 92.72111048148359 0  50 87.44430513406535 0  50 83.61890508869973 0  50 80.84569537599788 0  50 78.83526725030589 0  50 77.37781470319995 0  50 76.32123989355226 0  50 75.55527989155394 0  50 74.49999999999723 0  50 73.99999999999444 0  50 73.49999999999167 0  50 72.9999999999889 0  50 72.49999999998612 0  50 71.99999999998334 0  50 71.49999999998057 0  50 70.9999999999778 0  50 70.49999999997502 0  50 69.99999999997225 0  50 69.49999999996948 0  50 68.99999999996669 0  50 68.49999999996392 0  50 67.99999999996115 0  50 67.49999999995836 0  50 66.99999999995559 0  50 66.49999999995282 0  50 65.99999999995003 0  50 65.49999999994726 0  50 64.99999999994449 0  50 64.49999999994171 0  50 63.99999999993982 0  50 63.49999999994937 0  50 62.99999999996081 0  50 62.49999999997224 0  50 61.99999999998368 0  50 61.49999999999511 0  50 61.00000000000655 0  50 60.50000000001798 0  50 60.00000000002942 0  50 59.50000000004086 0  50 59.00000000004974 0  50 58.50000000004718 0  50 58.00000000004441 0  50 57.50000000004164 0  50 57.00000000003886 0  50 56.50000000003608 0  50 56.00000000003331 0  50 55.50000000003053 0  50 55.00000000002775 0  50 54.50000000002498 0  50 54.0000000000222 0  50 53.50000000001943 0  50 53.00000000001666 0  50 52.50000000001388 0  50 52.0000000000111 0  50 51.50000000000833 0  50 51.00000000000556 0  50 50.50000000000278 0  50 49.50000000000319 0  50 49.00000000000639 0  50 48.50000000000958 0  50 48.00000000001277 0  50 47.50000000001596 0  50 47.00000000001916 0  50 46.50000000002235 0  50 46.00000000002554 0  50 45.50000000002873 0  50 45.00000000003192 0  50 44.50000000003512 0  50 44.00000000003831 0  50 43.5000000000415 0  50 43.00000000004469 0  50 42.50000000004789 0  50 42.00000000005108 0  50 41.50000000005427 0  50 41.00000000005746 0  50 40.50000000006066 0  50 40.00000000006385 0  50 39.50000000006704 0  50 39.00000000007024 0  50 38.50000000007343 0  50 38.00000000007662 0  50 37.50000000007981 0  50 37.00000000008301 0  50 36.5000000000862 0  50 36.00000000008939 0  50 35.50000000009258 0  50 35.00000000009578 0  50 34.50000000009896 0  50 34.0000000000996 0  50 33.50000000008881 0  50 33.00000000007779 0  50 32.50000000006678 0  50 32.00000000005598 0  50 31.5000000000509 0  50 31.00000000004698 0  50 30.50000000004307 0  50 30.00000000003915 0  50 29.50000000003524 0  50 29.00000000003132 0  50 28.50000000002741 0  50 28.00000000002349 0  50 27.50000000001958 0  50 27.0
[...]
<PointData  Vectors="Displacement"> 
<DataArray  type="Float64"  Name="Displacement"  NumberOfComponents="3" format="ascii">0.0000000000000000e+00 0.0000000000000000e+00 0.0000000000000000e+00  0.0000000000000000e+00 0.0000000000000000e+00 0.0000000000000000e+00  0.0000000000000000e+00 0.0000000000000000e+00 0.0000000000000000e+00  1.2004427540546444e-03 3.0261204637407766e-04 0.0000000000000000e+00  2.5373635797805022e-03 2.8697701687044955e-03 0.0000000000000000e+00  4.0000000000000001e-03 4.0000000000000001e-03 0.0000000000000000e+00  4.0000000000000001e-03 4.0000000000000001e-03 0.0000000000000000e+00  4.0000000000000001e-03 4.0000000000000001e-03 0.0000000000000000e+00  2.7995572421047319e-03 3.6973879546746244e-03 0.0000000000000000e+00  1.4626364138469424e-03 1.1302298275467776e-03 0.0000000000000000e+00  3.4370289995361209e-03 3.8771520999560942e-03 0.0000000000000000e+00  1.0927197765085146e-03 9.3037316417015823e-04 0.0000000000000000e+00  5.6297099795716025e-04 1.2284790112100579e-04 0.0000000000000000e+00  2.9072802182553486e-03 3.0696268319131111e-03 0.0000000000000000e+00  1.7862768700403632e-03 1.9269309109527903e-03 0.0000000000000000e+00  2.1918451960441644e-03 2.5840609830949457e-03 0.0000000000000000e+00  2.2137231233623112e-03 2.0730690880834913e-03 0.0000000000000000e+00  1.8081547988119237e-03 1.4159390173026224e-03 0.0000000000000000e+00  1.5584384351160724e-03 9.3580599632104027e-04 0.0000000000000000e+00  2.4147929917800338e-03 2.5139095467751733e-03 0.0000000000000000e+00  2.4415615603610324e-03 3.0641940042912762e-03 0.0000000000000000e+00  1.5852070012507898e-03 1.4860904512910310e-03 0.0000000000000000e+00  3.3853929639484329e-03 3.5215322911690220e-03 0.0000000000000000e+00  3.1600294724815508e-03 3.0627127102599632e-03 0.0000000000000000e+00  2.9836817523908577e-03 3.1027010242288388e-03 0.0000000000000000e+00  6.1460703357955893e-04 4.7846770954992142e-04 0.0000000000000000e+00  8.3997052624954123e-04 9.3728729244585841e-04 0.0000000000000000e+00  1.0163182395284218e-03 8.9729895739319775e-04 0.0000000000000000e+00  1.9999999973378457e-03 2.0000000005009478e-03 0.0000000000000000e+00  2.0199312315409678e-03 2.3012231481577736e-03 0.0000000000000000e+00  1.9800687628269116e-03 1.6987768519888492e-03 0.0000000000000000e+00  2.1639866723825478e-03 2.5323652651117424e-03 0.0000000000000000e+00  2.1250430506944535e-03 2.4704689936841701e-03 0.0000000000000000e+00  2.0776291025532303e-03 2.3983157801090739e-03 0.0000000000000000e+00  1.9507409217540130e-03 2.1807737561342980e-03 0.0000000000000000e+00  1.8775677635721939e-03 2.0671847708383663e-03 0.0000000000000000e+00  1.8214327233848468e-03 1.9839510183311962e-03 0.0000000000000000e+00  2.1785672701177313e-03 2.0160489808041557e-03 0.0000000000000000e+00  2.1224322301754009e-03 1.9328152285416908e-03 0.0000000000000000e+00  2.0492590723315786e-03 1.8192262436445635e-03 0.0000000000000000e+00  1.9223708920077832e-03 1.6016842202220564e-03 0.0000000000000000e+00  1.8749569439947364e-03 1.5295310066931243e-03 0.0000000000000000e+00  1.8360133224017972e-03 1.4676347352776909e-03 0.0000000000000000e+00  2.0053240094394407e-03 2.2773006314058069e-03 0.0000000000000000e+00  2.0004042421480116e-03 2.2602597913236717e-03 0.0000000000000000e+00  1.9978168987164705e-03 2.2467795297861069e-03 0.0000000000000000e+00  1.9968507095315057e-03 2.2366654034678109e-03 0.0000000000000000e+00  1.9970234269300231e-03 2.2291473394885578e-03 0.0000000000000000e+00  1.9978670548360085e-03 2.2231847239653863e-03 0.0000000000000000e+00  1.9990240604081714e-03 2.2181132846511194e-03 0.0000000000000000e+00  2.0003145262918643e-03 2.2136029891133150e-03 0.0000000000000000e+00  2.0016400022044387e-03 2.2094689809717973e-03 0.0000000000000000e+00  2.0029542650680022e-03 2.2056019681847669e-03 0.0000000000000000e+00  2.0042305970629716e-03 2.2019335469395515e-03 0.0000000000000000e+00  2.0054539255740262e-03 2.1984172409239590e-03 0.0000000000000000e+00  2.0066194456433398e-03 2.1950195318971820e-03 0.0000000000000000e+00  2.0077214595767097e-03 2.1917178789009205e-03 0.0000000000000000e+00  2.0087608465240046e-03 2.1884934584982113e-03 0.0000000000000000e+00  2.0097380787018437e-03 2.1853331868473625e-03 0.0000000000000000e+00  2.0106553326835574e-03 2.1822259224682184e-03 0.0000000000000000e+00  2.0115139277545597e-03 2.1791634524469805e-03 0.0000000000000000e+00  2.0123151800236815e-03 2.1761391500052523e-03 0.0000000000000000e+00  2.0130630087129018e-03 2.1731462372947060e-03 0.0000000000000000e+00  2.0137569961555654e-03 2.1701805467381542e-03 0.0000000000000000e+00  2.0144008645984852e-03 2.1672376237356693e-03 0.0000000000000000e+00  2.0149956468897483e-03 2.1643142681799237e-03 0.0000000000000000e+00  2.0155435455978810e-03 2.1614072486815174e-03 0.0000000000000000e+00  2.0160458950000187e-03 2.1585140767451851e-03 0.0000000000000000e+00  2.0165043486952941e-03 2.1556323219097391e-03 0.0000000000000000e+00  2.0169205413426046e-03 2.1527600912620995e-03 0.0000000000000000e+00  2.0172953139228713e-03 2.1498956343355734e-03 0.0000000000000000e+00  2.0176305300425735e-03 2.1470371222077241e-03 0.0000000000000000e+00  2.0179267114003047e-03 2.1441831570664449e-03 0.0000000000000000e+00  2.0181856085193478e-03 2.1413325295342226e-03 0.0000000000000000e+00  2.0184075397827995e-03 2.1384841763861392e-03 0.0000000000000000e+00  2.0185940615154645e-03 2.1356366939097576e-03 0.0000000000000000e+00  2.0187457348035563e-03 2.1327891624159144e-03 0.0000000000000000e+00  2.0188631711925815e-03 2.1299408504760328e-03 0.0000000000000000e+00  2.0189476967637219e-03 2.1270906969706369e-03 0.0000000000000000e+00  2.0189995490967330e-03 2.1242378226666589e-03 0.0000000000000000e+00  2.0190195149522457e-03 2.1213815717697612e-03 0.0000000000000000e+00  2.0190083108585009e-03 2.1185212986199759e-03 0.0000000000000000e+00  2.0189665261497397e-03 2.1156561846163418e-03 0.0000000000000000e+00  2.0188947775280366e-03 2.1127856060451874e-03 0.0000000000000000e+00  2.0187934307604378e-03 2.1099088470452622e-03 0.0000000000000000e+00  2.0186630718716965e-03 2.1070253605866532e-03 0.0000000000000000e+00  2.0185042628867579e-03 2.1041345323060544e-03 0.0000000000000000e+00  2.0183173081732716e-03 2.1012357258062921e-03 0.0000000000000000e+00  2.0181029223094119e-03 2.0983283189382738e-03 0.0000000000000000e+00  2.0178611697564994e-03 2.0954117123790669e-03 0.0000000000000000e+00  2.0175927465828566e-03 2.0924853704748390e-03 0.0000000000000000e+00  2.0172980111342327e-03 2.0895486979329784e-03 0.0000000000000000e+00  2.0169772125410959e-03 2.0866010916388393e-03 0.0000000000000000e+00  2.0166309179696549e-03 2.0836418722930856e-03 0.0000000000000000e+00  2.0162593328472388e-03 2.0806704220717536e-03 0.0000000000000000e+00  2.0158629740693250e-03 2.0776861463211562e-03 0.0000000000000000e+00  2.0154421240288199e-03 2.0746883972199322e-03 0.0000000000000000e+00  2.0149972218511986e-03 2.0716764495145017e-03 0.0000000000000000e+00  2.0145285745715876e-03 2.0686496409452761e-03 0.0000000000000000e+00  2.0140365770824589e-03 2.0656071949776474e-03 0.0000000000000000e+00  2.0135216409866044e-03 2.0625483820475095e-03 0.0000000000000000e+00  2.0129841133085646e-03 2.0594724491429369e-03 0.0000000000000000e+00  2.0124244721303865e-03 2.0563785216462507e-03 0.0000000000000000e+00  2.0118430145942431e-03 2.0532657838982903e-03 0.0000000000000000e+00  2.0112402001719707e-03 2.0501332556927200e-03 0.0000000000000000e+00  2.0106165298852054e-03 2.0469800679279821e-03 0.0000000000000000e+00  2.0099724476636796e-03 2.0438052511980867e-03 0.0000000000000000e+00  2.0093083124030154e-03 2.0406077433933073e-03 0.0000000000000000e+00  2.0086248723725289e-03 2.0373863718400266e-03 0.0000000000000000e+00  2.0079223784427659e-03 2.0341400682740087e-03 0.0000000000000000e+00  2.0072015295229183e-03 2.0308675943687413e-03 0.0000000000000000e+00  2.0064630155527063e-03 2.0275676638741103e-03 0.0000000000000000e+00  2.0057072814600118e-03 2.0242388938393817e-03 0.0000000000000000e+00  2.0049350729816444e-03 2.0208798734207964e-03 0.0000000000000000e+00  2.0041471020631890e-03 2.0174891524236513e-03 0.0000000000000000e+00  2.0033442627986576e-03 2.0140650227059337e-03 0.0000000000000000e+00  2.0025270668884449e-03 2.0106059312214393e-03 0.0000000000000000e+00  2.0016968047260157e-03 2.0071099403643948e-03 0.0000000000000000e+00  2.0008540129742105e-03 2.0035753527827133e-03 0.0000000000000000e+00  1.9991459817010871e-03 1.9964246482186789e-03 0.0000000000000000e+00  1.9983031899480507e-03 1.9928900606352331e-03 0.0000000000000000e+00  1.9974729277835862e-03 1.9893940697752188e-03 0.0000000000000000e+00  1.9966557318705710e-03 1.9859349782865928e-03 0.0000000000000000e+00  1.9958528926025095e-03 1.9825108485636228e-03 0.0000000000000000e+00  1.9950649216798474e-03 1.9791201275601773e-03 0.0000000000000000e+00  1.9942927131966150e-03 1.9757611071342506e-03 0.0000000000000000e+00  1.9935369790984362e-03 1.9724323370911875e-03 0.0000000000000000e+00  1.9927984651221700e-03 1.9691324065872861e-03 0.0000000000000000e+00  1.9920776161957369e-03 1.9658599326718498e-03 0.0000000000000000e+00  1.9913751222588828e-03 1.9626136290947838e-03 0.0000000000000000e+00  1.9906916822208633e-03 1.9593922575296507e-03 0.0000000000000000e+00  1.9900275469522484e-03 1.9561947497122299e-03 0.0000000000000000e+00  1.9893834647223959e-03 1.9530199329689548e-03 0.0000000000000000e+00  1.9887597944269648e-03 1.9498667451901314e-03 0.0000000000000000e+00  1.9881569799957239e-03 1.9467342169698116e-03 0.0000000000000000e+00  1.9875755224503366e-03 1.9436214792064633e-03 0.0000000000000000e+00  1.9870158812626782e-03 1.9405275516937975e-03 0.0000000000000000e+00  1.9864783535749695e-03 1.9374516187727006e-03 0.0000000000000000e+00  1.9859634174692704e-03 1.9343928058255025e-03 0.0000000000000000e+00  1.9854714199701393e-03 1.9313503598402705e-03 0.0000000000000000e+00  1.9850027726804049e-03 1.9283235512529417e-03 0.0000000000000000e+00  1.9845578704925952e-03 1.9253116035290040e-03 0.0000000000000000e+00  1.9841370204418457e-03 1.9223138544088895e-03 0.0000000000000000e+00  1.9837406616536584e-03 1.9193295786390360e-03 0.0000000000000000e+00  1.9833690765209671e-03 1.9163581283981276e-03 0.0000000000000000e+00  1.9830227819392764e-03 1.9133989090325131e-03 0.0000000000000000e+00  1.9827019833359265e-03 1.9104513027182377e-03 0.0000000000000000e+00  1.9824072478771522e-03 1.9075146301560069e-03 0.0000000000000000e+00  1.9821388246934347e-03 1.9045882882311994e-03 0.0000000000000000e+00  1.9818970721305366e-03 1.9016716816512222e-03 0.0000000000000000e+00  1.9816826862568159e-03 1.8987642747622969e-03 0.0000000000000000e+00  1.9814957315335952e-03 1.8958654682414864e-03 0.0000000000000000e+00  1.9813369225390623e-03 1.8929746399397387e-03 0.0000000000000000e+00  1.9812065636408767e-03 1.8900911534598468e-03 0.0000000000000000e+00  1.9811052168639902e-03 1.8872143944385440e-03 0.0000000000000000e+00  1.9810334682331811e-03 1.8843438158459836e-03 0.0000000000000000e+00  1.9809916835155121e-03 1.8814787018209414e-03 0.0000000000000000e+00  1.9809804794130408e-03 1.8786184286497466e-03 0.0000000000000000e+00  1.9810004452600230e-03 1.8757621777314650e-03 0.0000000000000000e+00  1.9810522975847148e-03 1.8729093034061562e-03 0.0000000000000000e+00  1.9811368231477510e-03 1.8700591498794976e-03 0.0000000000000000e+00  1.9812542595288923e-03 1.8672108379184445e-03 0.0000000000000000e+00  1.9814059328093245e-03 1.8643633064035327e-03 0.0000000000000000e+00  1.9815924545345666e-03 1.8615158239062202e-03 0.0000000000000000e+00  1.9818143857908118e-03 1.8586674707373348e-03 0.0000000000000000e+00  1.9820732829028786e-03 1.8558168431844773e-03 0.0000000000000000e+00  1.9823694642538705e-03 1.8529628780227518e-03 0.0000000000000000e+00  1.9827046803670739e-03 1.8501043658746606e-03 0.0000000000000000e+00  1.9830794529410796e-03 1.8472399089281084e-03 0.0000000000000000e+00  1.9834956455823667e-03 1.8443676782606798e-03 0.0000000000000000e+00  1.9839540992718572e-03 1.8414859234057136e-03 0.0000000000000000e+00  1.9844564486684404e-03 1.8385927514501348e-03 0.0000000000000000e+00  1.9850043473712714e-03 1.8356857319327948e-03 0.0000000000000000e+00  1.9855991296574738e-03 1.8327623763584489e-03 0.0000000000000000e+00  1.9862429980955763e-03 1.8298194533377219e-03 0.0000000000000000e+00  1.9869369855336706e-03 1.8268537627633161e-03 0.0000000000000000e+00  1.9876848142185671e-03 1.8238608500353408e-03 0.0000000000000000e+00  1.9884860664836179e-03 1.8208365475766374e-03 0.0000000000000000e+00  1.9893446615507964e-03 1.8177740775389096e-03 0.0000000000000000e+00  1.9902619155289679e-03 1.8146668131438421e-03 0.0000000000000000e+00  1.9912391477035596e-03 1.8115065414776833e-03 0.0000000000000000e+00  1.9922785346479124e-03 1.8082821210603514e-03 0.0000000000000000e+00  1.9933805485786871e-03 1.8049804680502484e-03 0.0000000000000000e+00  1.9945460686458336e-03 1.8015827590105772e-03 0.0000000000000000e+00  1.9957693971552407e-03 1.7980664529832131e-03 0.0000000000000000e+00  1.9970457291492087e-03 1.7943980317276032e-03 0.0000000000000000e+00  1.9983599920126265e-03 1.7905310189319295e-03 0.0000000000000000e+00  1.9996854679262556e-03 1.7863970107841252e-03 0.0000000000000000e+00  2.0009759338128126e-03 1.7818867152434152e-03 0.0000000000000000e+00  2.0021329393906913e-03 1.7768152759314721e-03 0.0000000000000000e+00  2.0029765673069497e-03 1.7708526604192855e-03 0.0000000000000000e+00  2.0031492847229792e-03 1.7633345964659394e-03 0.0000000000000000e+00  2.0021830955621609e-03 1.7532204701917312e-03 0.0000000000000000e+00  1.9995957521542710e-03 1.7397402087029714e-03 0.0000000000000000e+00  1.9946759848858972e-03 1.7226993686686289e-03 0.0000000000000000e+00  1.4496797808182282e-03 1.1263077376437033e-03 0.0000000000000000e+00  1.3862951631139055e-03 1.1005624791388269e-03 0.0000000000000000e+00  1.2641606770464608e-03 1.0369937659060898e-03 0.0000000000000000e+00  8.2336321857684415e-04 7.3690977016615871e-04 0.0000000000000000e+00  4.7820252866847965e-04 4.5682997504419877e-04 0.0000000000000000e+00  0.0000000000000000e+00 0.0000000000000000e+00 0.0000000000000000e+00  0.0000000000000000e+00 0.0000000000000000e+00 0.0000000000000000e+00  0.0000000000000000e+00 0.0000000000000000e+00 0.0000000000000000e+00  0.0000000000000000e+00 0.0000000000000000e+00 0.0000000000000000e+00  0.0000000000000000e+00 0.0000000000000000e+00 0.0000000000000000e+00  0.0000000000000000e+00 0.0000000000000000e+00 0.0000000000000000e+00  0.0000000000000000e+00 0.0000000000000000e+00 0.0000000000000000e+00  0.0000000000000000e+00 0.0000000000000000e+00 0.0000000000000000e+00  1.5121766057652272e-04 1.3080470216570362e-05 0.0000000000000000e+00  3.4671119798989150e-04 6.3980744259207724e-05 0.0000000000000000e+00  7.5014798145307533e-04 1.7234122997496603e-04 0.0000000000000000e+00  9.3892825132512446e-04 2.2251284895199070e-04 0.0000000000000000e+00  1.1053461879375922e-03 2.7048011541801930e-04 0.0000000000000000e+00  2.5503202130247649e-03 2.8736922585654531e-03 0.0000000000000000e+00  2.6137048310888211e-03 2.8994375170843037e-03 0.0000000000000000e+00  2.7358393174417490e-03 2.9630062303584699e-03 0.0000000000000000e+00  3.1766367773381722e-03 3.2630902254484114e-03 0.0000000000000000e+00  3.5217974694694595e-03 3.5431700217052214e-03 0.0000000000000000e+00  4.0000000000000001e-03 4.0000000000000001e-03 0.0000000000000000e+00  4.0000000000000001e-03 4.0000000000000001e-03 0.0000000000000000e+00  4.0000000000000001e-03 4.0000000000000001e-03 0.0000000000000000e+00  4.0000000000000001e-03 4.0000000000000001e-03 0.0000000000000000e+00  4.0000000000000001e-03 4.0000000000000001e-03 0.0000000000000000e+00  4.0000000000000001e-03 4.0000000000000001e-03 0.0000000000000000e+00  4.0000000000000001e-03 4.0000000000000001e-03 0.0000000000000000e+00  4.0000000000000001e-03 4.0000000000000001e-03 0.0000000000000000e+00  3.8487823384284387e-03 3.9869195304375535e-03 0.0000000000000000e+00  3.6532888001891742e-03 3.9360192566828050e-03 0.0000000000000000e+00  3.2498520155634330e-03 3.8276587711528593e-03 0.0000000000000000e+00  3.0610717452821236e-03 3.7774871521792167e-03 0.0000000000000000e+00  2.8946538083633373e-03 3.7295198856729696e-03 0.0000000000000000e+00  2.7559927618172413e-03 3.6107474888761493e-03 0.0000000000000000e+00  2.6911035005280875e-03 3.4975034123163871e-03 0.0000000000000000e+00  2.6282356550214347e-03 3.3898372173591573e-03 0.0000000000000000e+00  2.5732676032516420e-03 3.2955512433052170e-03 0.0000000000000000e+00  2.5278522235376061e-03 3.2167780897992618e-03 0.0000000000000000e+00  2.4915223263427466e-03 3.1530836782210393e-03 0.0000000000000000e+00  2.4632060743093576e-03 3.1029038397782142e-03 0.0000000000000000e+00  2.4229622711981606e-03 3.0306604913919190e-03 0.0000000000000000e+00  2.4046355636796008e-03 2.9973594308468792e-03 0.0000000000000000e+00  2.3865688144016650e-03 2.9642641691839606e-03 0.0000000000000000e+00  2.3687547587203967e-03 2.9313436841364028e-03 0.0000000000000000e+00  2.3511619442424894e-03 2.8985462902142134e-03 0.0000000000000000e+00  2.3337757207587675e-03 2.8658123574440324e-03 0.0000000000000000e+00  2.3165542955268519e-03 2.8330612839705667e-03 0.0000000000000000e+00  2.2994483616665833e-03 2.8001802231946158e-03 0.0000000000000000e+00  2.2824091012337974e-03 2.7670337809447801e-03 0.0000000000000000e+00  2.2653548136111245e-03 2.7334260825091989e-03 0.0000000000000000e+00  2.2481597069306963e-03 2.6990662177881386e-03 0.0000000000000000e+00  2.2306448515136031e-03 2.6635196851666288e-03 0.0000000000000000e+00  2.2124360456180409e-03 2.6259774136965447e-03 0.0000000000000000e+00  1.7630529031803246e-03 1.8845564266246238e-03 0.0000000000000000e+00  1.7450768879593466e-03 1.8480146698485124e-03 0.0000000000000000e+00  1.7287920873592720e-03 1.8137833609625960e-03 0.0000000000000000e+00  1.7135163784027859e-03 1.7810282698174089e-03 0.0000000000000000e+00  1.6989777634120230e-03 1.7493390267876356e-03 0.0000000000000000e+00  1.6849827857810162e-03 1.7184396629549962e-03 0.0000000000000000e+00  1.6714312956265392e-03 1.6881505069140325e-03 0.0000000000000000e+00  1.6582560266085531e-03 1.6583389058397028e-03 0.0000000000000000e+00  1.6453910283227534e-03 1.6289080381396428e-03 0.0000000000000000e+00  1.6328220855849761e-03 1.5998021630072108e-03 0.0000000000000000e+00  1.6205233346054070e-03 1.5709795041802552e-03 0.0000000000000000e+00  1.6084814259838176e-03 1.5424185243778695e-03 0.0000000000000000e+00  1.5967110518969891e-03 1.5141204690227931e-03 0.0000000000000000e+00  1.4652399305095038e-03 1.1428605948381643e-03 0.0000000000000000e+00  1.4767448124417240e-03 1.1868359279468500e-03 0.0000000000000000e+00  1.4953277203615266e-03 1.2464254653560833e-03 0.0000000000000000e+00  1.5167522827283792e-03 1.3083591655092036e-03 0.0000000000000000e+00  1.5377347680741338e-03 1.3653613763019942e-03 0.0000000000000000e+00  1.5565346287312095e-03 1.4142863898562990e-03 0.0000000000000000e+00  1.5723873196618774e-03 1.4543564892874664e-03 0.0000000000000000e+00  2.5347600629993853e-03 2.8571394015611149e-03 0.0000000000000000e+00  2.5232551808463777e-03 2.8131640686977566e-03 0.0000000000000000e+00  2.5046722727384996e-03 2.7535745316150484e-03 0.0000000000000000e+00  2.4832477102756188e-03 2.6916408317949839e-03 0.0000000000000000e+00  2.4622652249051396e-03 2.6346386212829300e-03 0.0000000000000000e+00  2.4434653642582778e-03 2.5857136079414527e-03 0.0000000000000000e+00  2.4276126733481654e-03 2.5456435086658514e-03 0.0000000000000000e+00  2.4032889411540158e-03 2.4858795291359775e-03 0.0000000000000000e+00  2.3915185670889206e-03 2.4575814738689813e-03 0.0000000000000000e+00  2.3794766584903206e-03 2.4290204941506857e-03 0.0000000000000000e+00  2.3671779075348184e-03 2.4001978354042499e-03 0.0000000000000000e+00  2.3546089648220810e-03 2.3710919603490439e-03 0.0000000000000000e+00  2.3417439665622437e-03 2.3416610927231565e-03 0.0000000000000000e+